version 2
run General-1-20141121-17:53:27-7252
attr configname General
attr datetime 20141121-17:53:27
attr experiment General
attr inifile omnetpp.ini
attr iterationvars $0=20
attr iterationvars2 "$0=20, $repetition=0"
attr measurement $0=20
attr network ferry
attr processid 7252
attr repetition 0
attr replication #0
attr resultdir results
attr runnumber 1
attr seedset 1

vector 4  ferry.ferryboat  A->B  ETV
vector 6  ferry.ferryboat  "Left A->B"  ETV
vector 5  ferry.ferryboat  B->A  ETV
vector 7  ferry.ferryboat  "Left B->A"  ETV
4	10	300	1
4	78	2215.119050808703	12
4	144	4206.585682323578	12
4	227	5518.371704620543	20
4	290	7172.796936963593	12
4	370	8802.978551428471	11
4	430	10554.045991334865	12
4	503	12214.882035270567	14
4	572	14248.346687268352	13
4	630	15725.287722832493	9
4	697	17764.039823001692	16
4	755	19489.393924794866	8
4	831	21336.258471249171	7
4	912	23217.920570734265	19
4	975	24951.036271947507	12
4	1053	26839.096040814936	11
4	1142	28628.12669703281	20
4	1219	30592.020743323343	17
4	1273	32172.663565348716	8
4	1341	33720.655558276234	15
4	1429	35854.14566886752	16
4	1489	37620.272864255737	14
4	1554	39127.392483737583	15
4	1618	40737.365516265233	17
4	1691	42505.244357529894	13
4	1768	44445.716314383956	11
4	1836	46068.38906504789	10
4	1922	48179.336070047629	14
4	1975	49432.021754018353	7
4	2042	51174.520343063134	16
4	2122	53121.55648955552	16
4	2176	55053.14276137756	10
4	2231	56622.117130916128	11
4	2313	58699.049901945331	11
4	2372	60575.136411449869	11
4	2432	62128.11382260134	15
4	2489	63786.553780397232	10
4	2562	65346.752389089846	20
4	2621	67191.07646988197	12
4	2718	68829.91635202304	18
4	2803	70555.894366635005	20
4	2892	72362.83947371226	20
4	2968	74281.428960925001	17
4	3051	75858.639274314562	17
4	3125	77603.523892393655	16
4	3194	79250.612735651484	12
4	3276	81235.609504910894	14
4	3337	82653.832877573289	8
4	3395	84160.987347511076	7
4	3464	86127.634478202054	13
4	3541	88000.337767766039	20
4	3617	89717.033242862235	11
4	3674	91259.049714118483	9
4	3757	93532.780915484032	18
4	3830	95453.901473177175	11
4	3895	97031.09031251816	12
4	3966	98477.023329943389	18
4	4032	100293.333054357924	11
4	4118	102038.735462561526	18
4	4172	103494.343241571512	11
4	4263	105496.598682600869	20
4	4347	107600.471431904966	18
4	4429	109804.132456104656	17
4	4532	111819.773097611753	17
4	4584	113106.314105933418	8
4	4660	114947.867979553289	10
4	4742	116825.001576220942	20
4	4805	118839.828425224423	18
4	4873	120552.390724198093	10
4	4944	122401.549747120265	14
4	5009	124203.544198960524	12
4	5064	125958.411072202615	11
4	5107	127401.181896638129	5
4	5174	129181.557826563199	12
4	5242	131190.243737319817	19
4	5316	132919.301579570983	11
4	5393	134862.282905727394	18
4	5481	136825.647129320072	19
4	5535	138906.402919052869	11
4	5590	140366.319615268747	9
4	5669	141862.194038822088	10
4	5738	143760.115710519095	10
4	5810	145798.019260534846	13
4	5868	147201.32044595123	10
4	5964	149081.360177150489	20
4	6039	151071.515399046208	10
4	6091	152565.29708597894	10
4	6184	154598.056125761207	19
4	6250	156010.814802448316	11
4	6321	157533.068882239548	16
4	6413	159355.172517202449	18
4	6476	160739.192763431475	11
4	6557	162815.915813948776	12
4	6637	164663.616351611699	13
4	6708	166168.151055630933	11
4	6782	167697.318477483631	20
4	6857	169241.412371062367	20
4	6946	170957.741897264399	19
4	7012	172628.665598961977	11
4	7088	174406.881644847458	11
4	7139	175800.475054912574	9
4	7209	177391.018075412037	13
4	7279	179090.413242959296	12
4	7359	180840.887770422994	20
4	7452	182394.440487063174	20
4	7531	184343.422063587454	20
4	7619	186219.201186518782	16
4	7682	188150.42293367782	15
4	7752	189729.219015212367	16
4	7828	191479.073557053978	13
4	7899	192963.913757602733	13
4	7964	194598.165944829644	10
4	8046	196462.35426461342	14
4	8091	198153.12256776209	13
4	8146	200143.308130563355	10
4	8226	201939.182753340292	19
4	8312	203889.109278754081	18
4	8395	205541.272966608426	18
4	8461	207016.166287008576	14
4	8523	208697.868077076577	11
4	8596	210626.070890267072	16
4	8665	212337.732129273423	17
4	8738	214489.684321565428	18
4	8815	216452.268862625085	19
4	8879	218321.07930004904	14
4	8953	220280.133502645205	17
4	9014	221976.443513209226	11
4	9077	223826.731263887143	10
4	9161	225904.72264645789	19
4	9245	227223.380999282613	13
4	9320	229085.193262536534	15
4	9385	230733.341330898161	14
4	9450	232450.740597131412	8
4	9499	234346.725670248376	6
4	9581	236291.660442486131	20
4	9659	238532.307005583969	13
4	9720	240503.233211562697	12
4	9804	242372.537768560631	17
4	9857	244208.092710836726	11
4	9929	246017.323615984301	11
4	9997	247642.376324821486	15
4	10060	249521.325324587724	11
4	10122	251025.145529741152	16
4	10190	252959.069886186517	13
4	10269	254680.09167533058	17
4	10352	256274.990890630425	13
4	10413	257937.007960242066	11
4	10479	259616.105490282558	16
4	10557	261480.151767471779	18
4	10622	263225.309190033979	8
4	10696	264888.871011350715	12
4	10763	267030.354772719624	10
4	10842	268703.949724673834	16
4	10909	270500.68597277154	14
4	10998	272204.775402948004	20
4	11079	273835.134135444081	20
4	11145	275340.712060727206	11
4	11242	277060.094364047454	18
4	11303	278665.014180330797	11
4	11352	280222.984716824888	9
4	11432	282179.696030877447	14
4	11488	283941.499833285167	11
4	11555	285316.241386295839	10
4	11600	286829.83223572221	11
4	11679	288463.205338326494	19
4	11757	290374.705316265036	20
4	11814	292233.62566600496	15
4	11892	294242.315445984136	14
4	11964	296412.718723644944	19
4	12035	298261.413768007367	15
4	12125	300332.408086834257	18
4	12215	302008.109989138248	20
4	12306	303994.90600846035	16
4	12375	305631.853229397647	19
4	12424	307278.789227134572	10
4	12493	308997.293330089218	11
4	12551	310328.109878907455	11
4	12645	312136.138779345223	15
4	12717	313962.517033246875	14
4	12797	316275.63851636019	16
4	12874	318387.781696404065	17
4	12966	320078.395226644846	20
4	13045	322042.414666328782	15
4	13109	323967.752034626648	10
4	13172	325610.984756038595	11
4	13260	327286.431086555651	16
4	13309	328734.369323884889	10
4	13382	330340.410287194171	18
4	13452	331972.590410621688	15
4	13532	333806.895104271698	16
4	13610	335626.441893976981	12
4	13693	337976.704662953036	17
4	13759	339636.891388829106	14
4	13812	341375.678762909303	13
4	13887	343218.076977391314	15
4	13965	345344.2691750971	18
4	14034	347387.598837264614	9
4	14126	348918.494359040017	13
4	14184	350422.240075090645	10
4	14254	352366.249175588149	13
4	14336	354294.811988233236	20
4	14394	355957.230127819995	10
4	14468	357880.539357170816	10
4	14517	359497.964460642595	12
4	14617	361444.320749063881	18
4	14699	363159.437579645929	16
4	14783	364698.845544844598	20
4	14854	366264.701769105817	20
4	14931	367935.232157787535	16
4	15029	369488.866272745613	20
4	15107	371238.455160112161	19
4	15180	373092.184564216826	14
4	15234	374917.915480976636	12
4	15297	376478.532130414695	13
4	15375	378506.67842268865	19
4	15465	380507.971514333074	17
4	15537	382295.196630354342	17
4	15606	384455.438088810076	11
4	15657	385843.622406347426	8
4	15722	387531.405002223942	13
4	15797	389160.132781467947	13
4	15875	391029.762061611189	16
4	15964	392740.04187484367	16
4	16042	395122.26253002521	16
4	16113	396707.602514726503	13
4	16176	398492.101624729379	13
4	16224	400067.394892928909	8
4	16283	401670.611177748935	12
4	16366	403242.925738712198	20
4	16443	404954.589184053303	20
4	16523	406833.205849700334	16
4	16589	408778.598540504581	11
4	16669	410469.218489314513	18
4	16760	412432.986238005225	19
4	16842	414603.264978757737	14
4	16938	416459.972542489443	15
4	17021	418323.934641968624	17
4	17092	419823.775869351192	20
4	17152	421520.5548343237	15
4	17229	423360.765982126692	12
4	17319	425071.736094635791	14
4	17386	426527.044018758227	13
4	17442	428333.164064941463	9
4	17527	430228.849175178688	20
4	17586	431734.351657520091	13
4	17655	433602.93378839237	18
4	17745	435396.644823634207	17
4	17827	437266.076686419643	10
4	17887	438556.925169031578	11
4	17972	440535.962553106848	17
4	18031	442122.083197767361	13
4	18108	443865.361881524053	14
4	18164	445616.432435103129	12
4	18256	447523.888153402212	20
4	18336	449287.474979622742	20
4	18437	451534.97544935684	19
4	18479	452931.422625822655	8
4	18530	454333.72326609129	9
4	18606	456014.205353606392	11
4	18691	457792.541691484051	15
4	18759	459636.612526039211	14
4	18825	461541.801465294663	13
4	18892	463061.910220078114	12
4	18974	465215.123598158334	18
4	19043	467150.337095640015	12
4	19103	468815.32243338367	9
4	19167	470304.531404484965	13
4	19239	472250.982590149979	14
4	19284	473986.629317010231	9
4	19344	475676.295780997747	12
4	19416	477321.303663958384	20
4	19482	479189.045762349485	12
4	19552	480812.991629307775	16
4	19632	482754.406521102887	15
4	19704	484312.338443964468	20
4	19779	485963.668286893049	12
4	19851	487820.690701572841	17
4	19932	489421.511660059441	17
4	20005	491293.787700878397	15
4	20089	493164.850271502309	19
4	20165	495253.765380716082	19
4	20219	496868.9569024635	12
4	20298	498881.391050993251	10
4	20356	500152.978149869472	9
4	20438	502009.803091741478	20
4	20522	503500.791816697877	20
4	20593	505241.916044357042	16
4	20652	506694.09631050661	11
4	20735	508786.606848764113	15
4	20793	510353.808944586463	14
4	20896	512389.833882125625	20
4	20967	514156.416951953107	14
4	21050	515745.180594812188	17
4	21106	517489.236172816844	9
4	21171	519076.525398145512	14
4	21258	521050.389884340187	15
4	21346	523224.346019463075	16
4	21414	524694.045111621134	20
4	21491	526833.018810464558	16
4	21561	528236.947577575228	13
4	21615	529902.53007457885	14
4	21696	531887.928272256905	19
4	21785	533686.083931046853	20
4	21854	535340.522270803197	14
4	21948	537526.812925794861	18
4	22007	539316.332292252051	11
4	22075	541227.028323178933	11
4	22147	542659.1156911754	14
4	22200	544106.904508108805	12
4	22277	546135.108856023671	16
4	22365	548168.364289877334	20
4	22433	550171.423293587505	13
4	22504	551891.728069374513	14
4	22576	553447.550708287781	12
4	22657	555602.783802137772	19
4	22715	557055.069335868732	13
4	22783	558867.793260753532	18
4	22845	560376.677599285205	9
4	22944	562357.42872185587	16
4	23018	563718.9229382159	13
4	23082	565499.413190345404	8
4	23171	567560.543536867547	16
4	23245	569774.161073631266	19
4	23312	571761.943417881162	17
4	23402	573413.2001114912	19
4	23481	575415.317487777223	19
4	23545	577165.126915680322	13
4	23621	578792.503607861254	13
4	23674	580546.313522266811	12
4	23729	582270.752061703301	9
4	23814	583941.380224095962	19
4	23890	585811.754416854858	17
4	23958	587868.800150675219	15
4	24037	589944.966214737985	15
4	24090	591574.067614969632	16
4	24176	593589.401125525643	18
4	24249	595445.014028690804	15
4	24319	597850.353963545568	14
4	24399	599923.606984892474	17
5	48	1309.208956650936	12
5	120	3251.406559850963	14
5	204	5091.52669046746	15
5	261	6332.60353579446	11
5	326	7842.785620629882	14
5	398	9755.501822266079	18
5	461	11245.639999750639	13
5	540	13275.150639040074	18
5	604	15002.502605552737	15
5	664	16786.965570600838	10
5	719	18537.723755924442	14
5	791	20297.230728351168	20
5	859	22233.443223298614	17
5	954	24200.53448990708	17
5	1013	26029.700620406865	12
5	1097	27840.177729439167	20
5	1196	29816.883974206135	19
5	1249	31227.468751525921	10
5	1308	32861.236560341117	10
5	1380	34627.511642212341	18
5	1450	36563.875209182544	16
5	1522	38504.32366580866	11
5	1585	40028.114779680587	9
5	1651	41566.560679696979	11
5	1720	43279.418554752996	16
5	1799	45120.542283952834	20
5	1876	47082.566367187604	19
5	1948	48587.687143213783	20
5	2012	50329.274710896932	13
5	2079	52107.627079269109	12
5	2139	53776.78343210051	11
5	2202	55693.113057201612	12
5	2269	57565.132522721033	17
5	2353	59673.527078435916	20
5	2396	61421.771720940816	4
5	2466	62997.88626999571	10
5	2528	64718.88248314701	9
5	2596	66187.071996771803	11
5	2658	67976.118793789503	12
5	2749	69400.424154983631	20
5	2867	71677.138846650829	18
5	2928	73239.489154692445	12
5	3007	75125.23703130948	17
5	3091	76870.586632814884	19
5	3156	78341.961341152168	11
5	3241	80357.025867947907	19
5	3300	81883.172846692422	14
5	3358	83398.296659797161	14
5	3435	85183.103088956021	18
5	3491	87002.568797303957	10
5	3584	88810.030845196833	20
5	3643	90354.472582146543	14
5	3724	92628.044941178302	19
5	3789	94311.726656222357	13
5	3879	96349.591045844558	18
5	3937	97793.318003425312	8
5	3996	99391.050325304082	10
5	4084	101202.250474543002	20
5	4146	102699.68069791065	11
5	4226	104597.873651569698	16
5	4317	106803.767661528522	17
5	4386	108461.942713860066	16
5	4474	110593.400409392002	19
5	4554	112401.063902878125	20
5	4628	113889.638440170495	18
5	4716	115947.181388162933	17
5	4773	118002.239668124126	7
5	4844	119761.946047942307	14
5	4908	121519.051861042966	15
5	4972	123135.23576096495	11
5	5041	125226.855489526881	15
5	5084	126619.183692650492	7
5	5153	128445.857109849579	16
5	5210	130294.504705410456	7
5	5281	131818.148049130759	13
5	5340	133758.117473542552	12
5	5427	135762.774940756691	16
5	5508	137687.779201070875	14
5	5562	139744.221526787147	13
5	5627	141050.690446883576	20
5	5706	142740.578112177355	19
5	5768	144675.939659281305	15
5	5840	146426.52181470811	20
5	5926	148213.716013954416	15
5	6010	150149.291182804062	19
5	6070	151838.663917192215	14
5	6135	153705.285221753358	15
5	6216	155270.970891100549	17
5	6283	156684.112253304669	12
5	6363	158587.469101818159	18
5	6443	160029.131596580625	20
5	6529	161843.770229759604	20
5	6605	163980.75377116104	19
5	6668	165400.606330580336	12
5	6755	167033.24422836934	18
5	6829	168526.33974329458	13
5	6915	170168.133071194792	13
5	6989	171551.92941142303	20
5	7057	173434.113943946668	14
5	7118	175127.220605139519	15
5	7175	176774.803708234253	14
5	7239	178225.147529320042	13
5	7317	179801.364583055465	13
5	7405	181420.397349617273	20
5	7499	183531.213990087583	13
5	7579	185281.949204601561	18
5	7641	187137.190458079222	10
5	7715	188916.132723019002	10
5	7791	190615.443922654254	17
5	7870	192124.406407856514	15
5	7937	193880.490222239323	17
5	8014	195515.544290895724	20
5	8068	197253.427580450754	11
5	8114	199229.996110424654	4
5	8197	201169.032574156062	17
5	8286	203143.733093996856	19
5	8356	204859.353729680251	13
5	8425	206277.968376316598	11
5	8493	207771.761970775473	11
5	8563	209641.127594112194	16
5	8633	211337.723497743441	10
5	8700	213423.633301509586	14
5	8772	215449.588268132732	11
5	8847	217349.571720222784	13
5	8915	219255.797981053453	11
5	8984	221140.325991895197	14
5	9052	222884.329192624336	17
5	9122	224876.784245847628	10
5	9192	226458.220603344953	20
5	9266	227999.616885718023	12
5	9357	230029.458133514905	20
5	9422	231623.99032252562	14
5	9476	233569.500753844045	13
5	9544	235362.761215240179	11
5	9619	237352.619079256363	20
5	9686	239375.388746567282	11
5	9769	241445.633581602282	20
5	9829	243319.591338054948	13
5	9888	244971.399354606339	12
5	9966	246875.748610295038	12
5	10029	248381.21500770905	14
5	10099	250291.257632946136	11
5	10143	251834.873267786337	9
5	10229	253860.036403512578	13
5	10323	255618.565014137189	19
5	10385	257097.77416886146	12
5	10449	258912.684139843878	10
5	10510	260572.946009077842	10
5	10583	262286.566848844274	16
5	10661	264030.655456112033	20
5	10730	265981.611510544349	18
5	10790	267869.436614526786	16
5	10887	269733.859082274544	20
5	10959	271465.932971916573	8
5	11044	273086.655610377426	17
5	11124	274563.087742689461	20
5	11199	276176.969135121004	18
5	11269	277738.0595939505	20
5	11325	279559.957269067962	8
5	11393	281291.223763751491	14
5	11454	283033.972927745758	14
5	11518	284650.877896600938	18
5	11578	286227.060307426265	9
5	11630	287509.893429288539	8
5	11708	289352.574516133873	14
5	11785	291366.289234338391	12
5	11837	293048.283988502517	6
5	11942	295453.693748755933	19
5	12000	297289.12893330434	10
5	12084	299184.834024199741	16
5	12154	301179.268362442026	13
5	12244	302977.915709066864	18
5	12341	304859.849446588337	19
5	12396	306329.640999647148	10
5	12460	308098.859090487196	14
5	12518	309689.416467521083	10
5	12602	311272.022419696122	18
5	12680	312946.960711138764	20
5	12748	314905.722974063139	12
5	12834	317483.32830567205	19
5	12933	319390.132469976811	20
5	12995	321123.1849751681	12
5	13081	323108.328045132215	20
5	13146	324826.85569652069	14
5	13228	326450.418991309831	20
5	13283	327969.84032524764	11
5	13345	329697.679720244046	10
5	13411	331075.985105015655	8
5	13497	332835.087030279099	19
5	13559	334631.4952769732	11
5	13650	336783.513732218549	20
5	13725	338774.516745237647	14
5	13787	340462.049985825232	10
5	13861	342568.4386881519	16
5	13931	344319.929823297912	11
5	14002	346424.176493011167	18
5	14085	348098.828865066742	20
5	14157	349627.550437634715	20
5	14222	351237.972911808327	11
5	14290	353303.991596572449	13
5	14368	355063.184495710208	13
5	14426	356922.830259765082	12
5	14500	358795.643222842142	18
5	14568	360497.181239374664	13
5	14642	362220.143044710067	16
5	14750	364131.020934213204	20
5	14833	365775.339067776388	15
5	14907	367095.083129551057	16
5	14972	368815.269671930085	15
5	15062	370344.144365954259	14
5	15131	372123.533452484328	9
5	15211	373960.661624696965	19
5	15252	375597.534369315577	7
5	15347	377726.410139536951	20
5	15424	379616.873170132068	13
5	15496	381392.940218425165	9
5	15565	383467.755127256357	12
5	15632	385197.522661491523	17
5	15689	386740.193366503072	11
5	15749	388194.764137320424	10
5	15831	390028.444281632377	18
5	15926	391845.152041745587	18
5	16005	394122.488168877202	19
5	16068	395855.032290648009	12
5	16139	397511.046922169908	15
5	16205	399356.761946960019	12
5	16262	400964.755555543726	12
5	16331	402636.691133634153	11
5	16426	404360.386124409877	15
5	16490	406047.674104105484	11
5	16550	407639.732069042402	10
5	16621	409461.692231004457	17
5	16714	411584.746146441862	18
5	16802	413641.511164798801	19
5	16888	415566.783867447502	19
5	16974	417255.069983451382	20
5	17050	419111.571452791124	14
5	17121	420703.990586451611	11
5	17177	422259.999645544811	10
5	17260	423948.754266441475	20
5	17344	425603.765727582569	20
5	17416	427577.016533795777	20
5	17502	429531.557010651513	14
5	17566	430988.009383642831	11
5	17627	432629.901826041827	10
5	17710	434525.749293702631	19
5	17778	436179.577650378268	12
5	17852	437845.195226575449	20
5	17936	439430.668068067658	18
5	17995	441286.777643608398	14
5	18071	442974.242861693895	14
5	18140	444761.775297724258	12
5	18217	446762.512940626777	15
5	18292	448422.266626856833	15
5	18378	450444.98886745024	15
5	18450	452041.727111771374	20
5	18508	453733.174937076826	9
5	18568	455172.14795260308	18
5	18648	456963.638848001477	16
5	18732	458550.930311154354	16
5	18772	460305.295302581752	10
5	18856	462002.067609136801	20
5	18942	464122.625871414359	20
5	19012	466345.491713301287	11
5	19076	468086.007961238905	19
5	19127	469436.479622528797	9
5	19197	471084.642450712204	14
5	19259	472949.653727427725	13
5	19309	474825.0103047004	7
5	19377	476551.02283871772	11
5	19453	478212.944927709082	13
5	19516	480050.809408365851	13
5	19609	481938.807143219076	20
5	19669	483648.138187509367	5
5	19741	485113.793820404006	15
5	19804	486668.534153399038	11
5	19901	488664.425950876456	20
5	19967	490449.495530392251	13
5	20050	492394.26140251622	12
5	20117	494236.006604352373	11
5	20194	496055.406412379769	10
5	20264	498037.307444893358	17
5	20336	499398.030697065831	20
5	20400	501419.202226666387	14
5	20483	502880.506129420174	13
5	20549	504378.669810830708	9
5	20620	505936.737937259259	13
5	20698	507844.081317876907	15
5	20767	509709.002441172045	13
5	20832	511329.513877057264	12
5	20927	513178.455812795385	19
5	21012	514934.150912584588	18
5	21079	516571.625882592041	17
5	21141	518097.853806769932	12
5	21213	519957.94875279473	16
5	21307	522370.669181785279	19
5	21380	524009.869674386406	16
5	21458	525679.817546152539	12
5	21525	527611.74456542993	11
5	21589	528966.90387201698	10
5	21652	530648.643915303977	12
5	21742	532947.875085945958	15
5	21819	534471.382328500261	16
5	21894	536464.464567442199	15
5	21973	538333.719849451376	18
5	22032	540294.034229188792	13
5	22106	541958.124530078158	15
5	22171	543365.508696921117	13
5	22245	545155.020716086706	13
5	22314	547127.900518680745	15
5	22399	549115.140645978161	16
5	22467	550943.127247076269	13
5	22545	552593.222102372059	20
5	22631	554595.289234485219	16
5	22691	556447.50222113444	12
5	22740	558046.066559723633	5
5	22804	559666.561118809805	10
5	22882	561292.19421202035	19
5	22968	562797.650385662059	20
5	23042	564520.626341139422	17
5	23119	566403.534639296721	20
5	23202	568579.474261395846	13
5	23282	570725.186674701726	16
5	23357	572587.754827550938	11
5	23430	574420.870260768389	16
5	23531	576498.248828890987	19
5	23593	577963.809631112621	13
5	23642	579647.623273018013	7
5	23704	581440.851878718822	11
5	23773	583096.059446063494	16
5	23852	584742.854543333731	12
5	23924	586736.265475216034	12
5	23999	589126.889731110912	18
5	24068	590818.987559746452	10
5	24127	592597.135635125364	8
5	24217	594654.995116708164	20
5	24282	596564.892923745279	11
5	24359	598971.874789116325	18
6	10	300	0
6	78	2215.119050808703	0
6	144	4206.585682323578	0
6	227	5518.371704620543	0
6	290	7172.796936963593	0
6	370	8802.978551428471	0
6	430	10554.045991334865	0
6	503	12214.882035270567	0
6	572	14248.346687268352	0
6	630	15725.287722832493	0
6	697	17764.039823001692	0
6	755	19489.393924794866	0
6	831	21336.258471249171	0
6	912	23217.920570734265	0
6	975	24951.036271947507	0
6	1053	26839.096040814936	0
6	1142	28628.12669703281	0
6	1219	30592.020743323343	0
6	1273	32172.663565348716	0
6	1341	33720.655558276234	0
6	1429	35854.14566886752	0
6	1489	37620.272864255737	0
6	1554	39127.392483737583	0
6	1618	40737.365516265233	0
6	1691	42505.244357529894	0
6	1768	44445.716314383956	0
6	1836	46068.38906504789	0
6	1922	48179.336070047629	0
6	1975	49432.021754018353	0
6	2042	51174.520343063134	0
6	2122	53121.55648955552	0
6	2176	55053.14276137756	0
6	2231	56622.117130916128	0
6	2313	58699.049901945331	0
6	2372	60575.136411449869	0
6	2432	62128.11382260134	0
6	2489	63786.553780397232	0
6	2562	65346.752389089846	0
6	2621	67191.07646988197	0
6	2718	68829.91635202304	0
6	2803	70555.894366635005	0
6	2892	72362.83947371226	4
6	2968	74281.428960925001	0
6	3051	75858.639274314562	0
6	3125	77603.523892393655	0
6	3194	79250.612735651484	0
6	3276	81235.609504910894	0
6	3337	82653.832877573289	0
6	3395	84160.987347511076	0
6	3464	86127.634478202054	0
6	3541	88000.337767766039	0
6	3617	89717.033242862235	0
6	3674	91259.049714118483	0
6	3757	93532.780915484032	0
6	3830	95453.901473177175	0
6	3895	97031.09031251816	0
6	3966	98477.023329943389	0
6	4032	100293.333054357924	0
6	4118	102038.735462561526	0
6	4172	103494.343241571512	0
6	4263	105496.598682600869	0
6	4347	107600.471431904966	0
6	4429	109804.132456104656	0
6	4532	111819.773097611753	0
6	4584	113106.314105933418	0
6	4660	114947.867979553289	0
6	4742	116825.001576220942	0
6	4805	118839.828425224423	0
6	4873	120552.390724198093	0
6	4944	122401.549747120265	0
6	5009	124203.544198960524	0
6	5064	125958.411072202615	0
6	5107	127401.181896638129	0
6	5174	129181.557826563199	0
6	5242	131190.243737319817	0
6	5316	132919.301579570983	0
6	5393	134862.282905727394	0
6	5481	136825.647129320072	0
6	5535	138906.402919052869	0
6	5590	140366.319615268747	0
6	5669	141862.194038822088	0
6	5738	143760.115710519095	0
6	5810	145798.019260534846	0
6	5868	147201.32044595123	0
6	5964	149081.360177150489	0
6	6039	151071.515399046208	0
6	6091	152565.29708597894	0
6	6184	154598.056125761207	0
6	6250	156010.814802448316	0
6	6321	157533.068882239548	0
6	6413	159355.172517202449	0
6	6476	160739.192763431475	0
6	6557	162815.915813948776	0
6	6637	164663.616351611699	0
6	6708	166168.151055630933	0
6	6782	167697.318477483631	1
6	6857	169241.412371062367	0
6	6946	170957.741897264399	0
6	7012	172628.665598961977	0
6	7088	174406.881644847458	0
6	7139	175800.475054912574	0
6	7209	177391.018075412037	0
6	7279	179090.413242959296	0
6	7359	180840.887770422994	0
6	7452	182394.440487063174	0
6	7531	184343.422063587454	0
6	7619	186219.201186518782	0
6	7682	188150.42293367782	0
6	7752	189729.219015212367	0
6	7828	191479.073557053978	0
6	7899	192963.913757602733	0
6	7964	194598.165944829644	0
6	8046	196462.35426461342	0
6	8091	198153.12256776209	0
6	8146	200143.308130563355	0
6	8226	201939.182753340292	0
6	8312	203889.109278754081	0
6	8395	205541.272966608426	0
6	8461	207016.166287008576	0
6	8523	208697.868077076577	0
6	8596	210626.070890267072	0
6	8665	212337.732129273423	0
6	8738	214489.684321565428	0
6	8815	216452.268862625085	0
6	8879	218321.07930004904	0
6	8953	220280.133502645205	0
6	9014	221976.443513209226	0
6	9077	223826.731263887143	0
6	9161	225904.72264645789	0
6	9245	227223.380999282613	0
6	9320	229085.193262536534	0
6	9385	230733.341330898161	0
6	9450	232450.740597131412	0
6	9499	234346.725670248376	0
6	9581	236291.660442486131	0
6	9659	238532.307005583969	0
6	9720	240503.233211562697	0
6	9804	242372.537768560631	0
6	9857	244208.092710836726	0
6	9929	246017.323615984301	0
6	9997	247642.376324821486	0
6	10060	249521.325324587724	0
6	10122	251025.145529741152	0
6	10190	252959.069886186517	0
6	10269	254680.09167533058	0
6	10352	256274.990890630425	0
6	10413	257937.007960242066	0
6	10479	259616.105490282558	0
6	10557	261480.151767471779	0
6	10622	263225.309190033979	0
6	10696	264888.871011350715	0
6	10763	267030.354772719624	0
6	10842	268703.949724673834	0
6	10909	270500.68597277154	0
6	10998	272204.775402948004	5
6	11079	273835.134135444081	0
6	11145	275340.712060727206	0
6	11242	277060.094364047454	0
6	11303	278665.014180330797	0
6	11352	280222.984716824888	0
6	11432	282179.696030877447	0
6	11488	283941.499833285167	0
6	11555	285316.241386295839	0
6	11600	286829.83223572221	0
6	11679	288463.205338326494	0
6	11757	290374.705316265036	0
6	11814	292233.62566600496	0
6	11892	294242.315445984136	0
6	11964	296412.718723644944	0
6	12035	298261.413768007367	0
6	12125	300332.408086834257	0
6	12215	302008.109989138248	0
6	12306	303994.90600846035	0
6	12375	305631.853229397647	0
6	12424	307278.789227134572	0
6	12493	308997.293330089218	0
6	12551	310328.109878907455	0
6	12645	312136.138779345223	0
6	12717	313962.517033246875	0
6	12797	316275.63851636019	0
6	12874	318387.781696404065	0
6	12966	320078.395226644846	1
6	13045	322042.414666328782	0
6	13109	323967.752034626648	0
6	13172	325610.984756038595	0
6	13260	327286.431086555651	0
6	13309	328734.369323884889	0
6	13382	330340.410287194171	0
6	13452	331972.590410621688	0
6	13532	333806.895104271698	0
6	13610	335626.441893976981	0
6	13693	337976.704662953036	0
6	13759	339636.891388829106	0
6	13812	341375.678762909303	0
6	13887	343218.076977391314	0
6	13965	345344.2691750971	0
6	14034	347387.598837264614	0
6	14126	348918.494359040017	0
6	14184	350422.240075090645	0
6	14254	352366.249175588149	0
6	14336	354294.811988233236	0
6	14394	355957.230127819995	0
6	14468	357880.539357170816	0
6	14517	359497.964460642595	0
6	14617	361444.320749063881	0
6	14699	363159.437579645929	0
6	14783	364698.845544844598	1
6	14854	366264.701769105817	2
6	14931	367935.232157787535	0
6	15029	369488.866272745613	0
6	15107	371238.455160112161	0
6	15180	373092.184564216826	0
6	15234	374917.915480976636	0
6	15297	376478.532130414695	0
6	15375	378506.67842268865	0
6	15465	380507.971514333074	0
6	15537	382295.196630354342	0
6	15606	384455.438088810076	0
6	15657	385843.622406347426	0
6	15722	387531.405002223942	0
6	15797	389160.132781467947	0
6	15875	391029.762061611189	0
6	15964	392740.04187484367	0
6	16042	395122.26253002521	0
6	16113	396707.602514726503	0
6	16176	398492.101624729379	0
6	16224	400067.394892928909	0
6	16283	401670.611177748935	0
6	16366	403242.925738712198	0
6	16443	404954.589184053303	0
6	16523	406833.205849700334	0
6	16589	408778.598540504581	0
6	16669	410469.218489314513	0
6	16760	412432.986238005225	0
6	16842	414603.264978757737	0
6	16938	416459.972542489443	0
6	17021	418323.934641968624	0
6	17092	419823.775869351192	0
6	17152	421520.5548343237	0
6	17229	423360.765982126692	0
6	17319	425071.736094635791	0
6	17386	426527.044018758227	0
6	17442	428333.164064941463	0
6	17527	430228.849175178688	1
6	17586	431734.351657520091	0
6	17655	433602.93378839237	0
6	17745	435396.644823634207	0
6	17827	437266.076686419643	0
6	17887	438556.925169031578	0
6	17972	440535.962553106848	0
6	18031	442122.083197767361	0
6	18108	443865.361881524053	0
6	18164	445616.432435103129	0
6	18256	447523.888153402212	2
6	18336	449287.474979622742	0
6	18437	451534.97544935684	0
6	18479	452931.422625822655	0
6	18530	454333.72326609129	0
6	18606	456014.205353606392	0
6	18691	457792.541691484051	0
6	18759	459636.612526039211	0
6	18825	461541.801465294663	0
6	18892	463061.910220078114	0
6	18974	465215.123598158334	0
6	19043	467150.337095640015	0
6	19103	468815.32243338367	0
6	19167	470304.531404484965	0
6	19239	472250.982590149979	0
6	19284	473986.629317010231	0
6	19344	475676.295780997747	0
6	19416	477321.303663958384	0
6	19482	479189.045762349485	0
6	19552	480812.991629307775	0
6	19632	482754.406521102887	0
6	19704	484312.338443964468	1
6	19779	485963.668286893049	0
6	19851	487820.690701572841	0
6	19932	489421.511660059441	0
6	20005	491293.787700878397	0
6	20089	493164.850271502309	0
6	20165	495253.765380716082	0
6	20219	496868.9569024635	0
6	20298	498881.391050993251	0
6	20356	500152.978149869472	0
6	20438	502009.803091741478	0
6	20522	503500.791816697877	0
6	20593	505241.916044357042	0
6	20652	506694.09631050661	0
6	20735	508786.606848764113	0
6	20793	510353.808944586463	0
6	20896	512389.833882125625	0
6	20967	514156.416951953107	0
6	21050	515745.180594812188	0
6	21106	517489.236172816844	0
6	21171	519076.525398145512	0
6	21258	521050.389884340187	0
6	21346	523224.346019463075	0
6	21414	524694.045111621134	0
6	21491	526833.018810464558	0
6	21561	528236.947577575228	0
6	21615	529902.53007457885	0
6	21696	531887.928272256905	0
6	21785	533686.083931046853	0
6	21854	535340.522270803197	0
6	21948	537526.812925794861	0
6	22007	539316.332292252051	0
6	22075	541227.028323178933	0
6	22147	542659.1156911754	0
6	22200	544106.904508108805	0
6	22277	546135.108856023671	0
6	22365	548168.364289877334	0