version 2
run General-0-20141120-19:49:33-4156
attr configname General
attr datetime 20141120-19:49:33
attr experiment General
attr inifile omnetpp.ini
attr iterationvars $0=15
attr iterationvars2 "$0=15, $repetition=0"
attr measurement $0=15
attr network ferry
attr processid 4156
attr repetition 0
attr replication #0
attr resultdir results
attr runnumber 0
attr seedset 0

vector 0  ferry.ferryboat  A->B  ETV
vector 2  ferry.ferryboat  "Left A->B"  ETV
vector 1  ferry.ferryboat  B->A  ETV
vector 3  ferry.ferryboat  "Left B->A"  ETV
0	16	300	3
0	77	1759.587245768581	13
0	140	3403.500639857454	12
0	216	5122.005836456228	15
0	275	6549.628049294551	7
0	340	8146.679122999657	11
0	399	9650.955364279953	15
0	472	11127.480540699712	15
0	525	12847.0222743292	15
0	605	14337.744888993327	15
0	656	15700.239395830404	6
0	721	17515.769467296371	10
0	782	19113.880588580022	13
0	831	20541.278755545464	8
0	898	22083.706213692964	8
0	970	23815.516808914665	10
0	1023	25250.093186768017	9
0	1105	27006.919738308594	15
0	1169	28648.536784615586	8
0	1203	29837.622131416486	5
0	1261	31709.919582235167	10
0	1332	33266.974191342353	15
0	1406	34822.850760432159	15
0	1475	36104.896288255683	12
0	1534	37417.155589843609	15
0	1600	38790.036722295378	15
0	1670	40490.172890074441	15
0	1739	42265.00879803062	9
0	1802	43557.703435933109	15
0	1876	45385.050245600306	15
0	1931	46765.695753878335	15
0	1996	48816.469051623545	15
0	2057	50091.252382796032	15
0	2106	51541.263121200007	8
0	2168	53092.949105538555	12
0	2237	54948.546794639286	15
0	2306	56424.079819199433	15
0	2372	58205.440872051761	15
0	2428	59778.622580436852	14
0	2475	61167.573406156585	9
0	2536	62545.809883387793	15
0	2609	64048.524737758774	15
0	2662	65555.547946530742	15
0	2714	67043.139074631367	9
0	2797	69250.688313218193	11
0	2858	71155.643810073278	10
0	2941	72849.462911258594	13
0	3005	74397.156928896803	13
0	3052	75925.333738215479	5
0	3144	77228.071322046386	15
0	3194	78482.477264375699	15
0	3248	79846.236368535771	6
0	3303	81354.949231588581	9
0	3357	82832.383991792777	11
0	3423	84162.012384734693	15
0	3482	85687.984181901785	15
0	3545	87078.560288789827	15
0	3619	88401.998749911964	15
0	3682	90011.346804923298	14
0	3761	91801.147828837347	15
0	3833	93526.146873333804	15
0	3901	95208.765320475721	15
0	3966	96828.745446514982	15
0	4019	98313.232865230881	8
0	4090	99990.655017423804	15
0	4173	101924.124778459691	15
0	4222	103381.539999709284	8
0	4302	105470.296164256833	11
0	4386	107351.413337093362	13
0	4437	108915.750992894483	13
0	4484	110212.882235263518	8
0	4550	111370.596649967343	15
0	4620	112886.131115040538	15
0	4685	114543.793380258475	10
0	4740	116169.618430956612	9
0	4794	117919.947054336231	8
0	4869	119639.497222084707	10
0	4938	121250.439394597302	15
0	5006	122820.287921713711	13
0	5081	124531.307055068499	15
0	5142	126529.752766635725	13
0	5222	128285.070589608987	15
0	5278	130247.971552067391	8
0	5362	131932.69325759626	14
0	5407	133378.542922009817	8
0	5452	134646.064620967359	7
0	5484	135980.31256050921	5
0	5566	137605.949330322376	15
0	5627	139417.890453258341	8
0	5695	141284.56424392976	12
0	5767	142885.49992113871	15
0	5835	144207.326086478863	15
0	5899	145759.424015421483	15
0	5972	147459.000378060781	14
0	6036	148734.783375294003	14
0	6091	150315.232791181717	15
0	6147	151931.108393846203	15
0	6197	153297.456027266099	12
0	6264	154846.404480776532	15
0	6327	156739.843597275539	15
0	6401	158390.419201072021	15
0	6458	160113.877926091114	9
0	6515	161900.969338355339	14
0	6578	163432.135816758252	12
0	6639	165335.272078273501	15
0	6719	167140.372962076227	15
0	6787	168534.011545494302	15
0	6836	169768.87152053914	10
0	6921	171689.228963620587	13
0	6984	173199.329582191226	15
0	7036	174759.770528698668	10
0	7097	176476.042391666884	15
0	7159	178190.930205041677	15
0	7220	180018.399300428432	13
0	7291	181489.33386680754	15
0	7366	182980.015194774297	15
0	7425	184400.92613799328	15
0	7503	185895.773284164073	15
0	7583	187448.234537492051	15
0	7656	188905.378863882038	15
0	7714	190535.349967393095	12
0	7770	192194.741537408831	10
0	7826	194106.984303871244	12
0	7898	195987.645192558145	11
0	7971	197587.527863174654	15
0	8042	199005.782619075928	15
0	8099	200375.826914185526	11
0	8162	201991.30427064206	15
0	8229	203860.116532954509	13
0	8289	205178.33869725483	11
0	8356	206770.9266268287	15
0	8429	208405.510114187562	15
0	8484	209984.908015447343	15
0	8542	211796.080307552189	11
0	8610	213346.872197732791	15
0	8694	214971.973676554572	15
0	8754	216364.709997982399	15
0	8815	218069.526665894375	13
0	8886	219807.658220804903	14
0	8971	221354.004654839974	15
0	9026	222686.197204764003	8
0	9075	224043.413397261836	7
0	9152	225671.225158923893	14
0	9228	227491.32541807743	15
0	9280	228699.857223572414	10
0	9346	230108.304323789654	15
0	9393	231706.879329087209	13
0	9450	233180.981557231645	11
0	9514	234837.353786918238	15
0	9581	236396.90233685839	8
0	9636	238121.396567233886	10
0	9697	239720.441639500298	11
0	9749	241599.240998260979	6
0	9811	243202.096793535474	15
0	9888	245188.564060937666	15
0	9944	246712.965966859223	15
0	10025	248645.672811136429	15
0	10089	250289.562235492093	15
0	10142	251376.416302326339	15
0	10183	252979.442888812813	11
0	10256	254456.668738135124	15
0	10328	256013.149085833236	13
0	10423	257732.401088275713	15
0	10472	259175.084546286207	8
0	10517	260695.443925757074	7
0	10585	262251.983818416989	15
0	10647	263702.90131348038	15
0	10715	265040.80067479757	15
0	10791	266786.389034978151	15
0	10847	268441.917719528605	14
0	10911	270102.243570375778	15
0	10978	271708.942488886303	15
0	11045	273443.448067674398	15
0	11100	274890.219996743024	12
0	11174	276185.273181751622	10
0	11230	277823.906183462935	11
0	11285	279451.649226393256	11
0	11354	281101.382286245789	15
0	11434	283236.85220908993	14
0	11500	284443.289207820544	13
0	11568	286256.8723863159	15
0	11634	287932.428754807918	8
0	11699	289449.383425179595	15
0	11760	291067.298880692485	10
0	11821	292482.688553981163	15
0	11888	294348.830364143223	13
0	11963	295893.264259300582	15
0	12026	297333.852710531546	11
0	12078	299098.867601616012	6
0	12145	300996.663139486419	15
0	12212	302803.068781517847	15
0	12267	304442.853951459128	15
0	12337	306217.787324248952	15
0	12406	307446.572513192541	15
0	12477	309598.363856633053	13
0	12533	311047.866728741	9
0	12598	312587.568309883416	15
0	12654	314058.158546272798	15
0	12737	316138.356064593622	15
0	12808	317823.500590320217	15
0	12861	318951.309235209447	12
0	12949	320693.10168931547	15
0	13013	322321.264053635295	15
0	13075	323746.015041400914	15
0	13144	325563.466060123299	13
0	13218	327357.30273319849	10
0	13292	329122.174902867283	14
0	13357	330769.745987287083	10
0	13425	332219.37631127815	10
0	13479	333452.035178899994	11
0	13546	335017.276309538648	12
0	13610	336546.029522122127	13
0	13703	338053.678793324324	15
0	13762	339400.318319370159	15
0	13834	340833.692821381899	15
0	13913	342718.25728220158	15
0	13971	344474.8622970369	15
0	14044	346275.852250009964	15
0	14107	347719.483234687692	15
0	14165	349359.146744111356	13
0	14224	351067.381650923493	9
0	14290	352453.692883921709	15
0	14363	354320.429863224689	15
0	14441	355934.158942707443	15
0	14507	357988.356702860512	11
0	14576	359784.682132383495	13
0	14635	361093.627691774802	15
0	14705	362583.847429847439	15
0	14772	364058.493068970487	15
0	14851	365654.009616487883	15
0	14913	367586.633410095209	13
0	14976	369483.531634508581	15
0	15046	371268.297907946147	15
0	15106	372809.417827380618	12
0	15195	374246.997608707957	15
0	15261	375460.58930068217	15
0	15309	376792.530156956677	13
0	15376	378292.650552954489	10
0	15440	379994.609808318626	12
0	15497	381599.765268377485	11
0	15564	383073.703118272536	15
0	15630	384374.21363035697	15
0	15694	386048.633845413099	15
0	15753	387443.234523474932	15
0	15821	389038.31890583514	15
0	15884	390331.276695952496	15
0	15969	392036.039546523093	15
0	16035	393374.549279538198	15
0	16098	394944.43438029743	15
0	16148	396772.326200126553	9
0	16213	398075.690426967331	12
0	16279	399756.719780730115	14
0	16323	400997.738092624854	11
0	16403	402762.389107763107	15
0	16469	404639.660596911671	15
0	16550	406067.168514794244	15
0	16617	407540.773935508749	12
0	16669	408974.174565850915	10
0	16736	410133.895134565119	12
0	16802	411452.8319094083	15
0	16873	413053.426801593182	15
0	16962	414612.836215381282	15
0	17030	416230.364340192887	15
0	17076	417850.984673659821	15
0	17147	419311.951626172467	13
0	17217	420794.52742702256	15
0	17279	422574.650878372837	11
0	17362	424096.907100651374	15
0	17422	425744.457090168214	15
0	17466	427275.516376118185	9
0	17544	428933.93079937148	15
0	17614	430464.492547839611	15
0	17678	431927.43611248556	13
0	17740	433455.977849447959	15
0	17803	435027.80176689026	12
0	17874	436412.671361648917	9
0	17923	437841.696794752636	10
0	18002	439710.270425645918	15
0	18066	441420.718401297442	15
0	18118	442686.778444487957	15
0	18180	444121.695191702772	15
0	18249	445695.299973913257	12
0	18307	447305.458377912658	10
0	18378	448761.605086382197	15
0	18437	450013.152217667036	15
0	18510	451861.914284155147	14
0	18584	453622.733317483918	14
0	18635	455013.782896203966	13
0	18691	456382.408540661956	8
0	18751	457705.297062201986	11
0	18840	459476.453992151481	15
0	18891	460661.171270319178	15
0	18971	462140.537494817803	15
0	19028	463654.261949451683	15
0	19105	465484.812002268139	15
0	19164	466959.701370629619	15
0	19228	468591.189988076685	13
0	19312	470418.039159524782	14
0	19364	471534.727194694504	10
0	19416	473430.332762649741	14
0	19497	474743.876661926842	13
0	19566	476609.125940156767	11
0	19637	477991.657218110286	10
0	19718	479936.130922507014	15
0	19780	481370.947305368684	11
0	19827	482393.387976609754	10
0	19904	484159.167330954909	12
0	19954	485563.840270316847	8
0	20021	487129.680606246017	8
0	20075	488138.024128720834	10
0	20125	489435.842952992415	3
0	20196	490964.630026423869	15
0	20251	492112.451068774027	9
0	20309	493463.347388715099	8
0	20380	494974.62783754622	15
0	20443	496250.913233216337	15
0	20531	497509.841692991053	15
0	20585	499016.765356031328	11
0	20665	500607.296144483938	15
0	20728	501939.439451606184	8
0	20803	503480.700244492417	14
0	20864	505040.27384702366	15
0	20930	506508.884449847677	11
0	20978	508158.469238099984	7
0	21030	509559.532052295858	7
0	21102	511470.634104187323	15
0	21163	513463.707241131605	13
0	21234	514914.570740426409	14
0	21304	516304.470248351745	15
0	21374	518144.181545001278	14
0	21450	520214.119367022965	15
0	21518	521624.997865552443	15
0	21554	522585.586590713645	6
0	21634	524097.57018119478	15
0	21706	525749.878008465676	15
0	21764	527307.090824653859	9
0	21814	528965.26235648577	12
0	21874	530724.370877076411	15
0	21938	532264.161762956536	14
0	22021	533967.182599586448	12
0	22087	535693.48188419747	15
0	22132	537371.900879082967	11
0	22206	538977.117601080231	15
0	22287	540812.177867591413	15
0	22347	542469.677750749801	10
0	22411	543795.817130423306	15
0	22479	545767.974914206988	13
0	22550	547220.844250445496	15
0	22604	548715.913890084009	8
0	22653	550385.719111598663	8
0	22731	552236.501379088222	13
0	22802	553798.333820206827	15
0	22851	555350.244196839613	8
0	22892	556965.33920125457	7
0	22967	558569.273659696439	15
0	23038	560223.130309356655	15
0	23083	561603.259372094499	15
0	23147	563187.90831870941	15
0	23232	564878.657487794925	14
0	23289	566477.673408366542	11
0	23342	568230.832763351916	9
0	23416	569802.735623238082	15
0	23486	571214.485215276806	15
0	23551	573125.651447360849	14
0	23622	574618.066175388615	15
0	23693	576062.455321073878	11
0	23768	577644.494996279287	15
0	23834	579537.626303179429	14
0	23901	581231.919827551268	14
0	23952	582722.524643230049	7
0	24019	584309.196162625208	9
0	24084	585893.633293323534	8
0	24132	587396.082885432044	9
0	24194	588996.685206436551	15
0	24256	590625.391078178806	15
0	24304	592260.208448880334	8
0	24375	594443.081482723682	13
0	24442	595722.53887888746	13
0	24514	597170.440551052272	15
0	24575	598702.948460421035	15
1	47	1046.902850533108	8
1	106	2727.358626348342	11
1	186	4310.719095628704	15
1	245	5877.675221676417	11
1	300	7167.019116830647	15
1	366	8896.913227351291	13
1	445	10409.906755847597	15
1	500	12126.815881488855	8
1	564	13591.479291448898	8
1	626	14824.892861219703	15
1	677	16384.818644523291	15
1	744	18245.796458567111	15
1	807	19905.893388346484	13
1	865	21239.915296316599	15
1	926	22694.596631575453	15
1	990	24305.607303897855	15
1	1059	26040.35985206858	15
1	1136	27672.187907514918	15
1	1180	29066.935604168698	15
1	1241	30790.551538814701	15
1	1300	32488.99003230333	15
1	1369	34123.239290387468	11
1	1436	35318.50117080727	15
1	1515	37001.307012063163	14
1	1575	38138.060059089896	9
1	1645	39841.256239117489	13
1	1710	41543.845600582538	14
1	1773	43033.539806793123	11
1	1855	44694.975134146936	10
1	1918	46419.224033036812	9
1	1960	47818.039837781755	9
1	2029	49470.538617148524	15
1	2088	50910.824102957802	10
1	2137	52270.949166808683	10
1	2206	54173.059594247603	13
1	2267	55689.57205315266	11
1	2349	57426.832371374882	13
1	2400	59088.949887505371	11
1	2455	60518.51237690185	10
1	2510	61989.271048286227	10
1	2578	63294.360263165707	9
1	2641	65123.912429211204	7
1	2697	66289.121088101479	12
1	2746	68209.102117939962	9
1	2816	70181.32442034764	15
1	2895	72113.445157589957	15
1	2970	73560.295743644986	15
1	3026	74962.383721707777	15
1	3103	76408.979830142507	15
1	3157	77765.067491934718	15
1	3225	79045.511641482102	15
1	3261	80285.814957852502	15
1	3322	81793.847425539555	15
1	3378	83283.029534733095	15
1	3455	85066.153733337698	14
1	3514	86526.288634675969	10
1	3596	87848.238256152997	15
1	3659	89372.027289190661	12
1	3719	90849.242683652356	15
1	3800	92646.264359771722	15
1	3876	94638.487478333887	14
1	3941	96097.384286857708	12
1	3988	97644.34108102929	8
1	4051	99067.946726176392	15
1	4118	100735.379504543606	14
1	4198	102629.268936202842	15
1	4245	104164.75390077489	14
1	4331	106047.391903178789	15
1	4411	107997.180536179785	15
1	4450	109247.925405503252	15
1	4531	110934.235569173977	15
1	4581	112093.261238506621	13
1	4651	113634.887685324586	15
1	4703	115273.686911816393	12
1	4769	116969.221834537919	15
1	4839	118605.201486362908	15
1	4907	120523.812232545504	15
1	4979	121907.371358321202	15
1	5054	123923.031961332343	15
1	5105	125410.205316334318	12
1	5187	127358.82214750883	15
1	5257	129056.861072303463	15
1	5295	130781.803028702725	15
1	5385	132563.960053572994	15
1	5423	133774.158821302484	15
1	5462	135302.515496929168	9
1	5529	136848.851333145501	14
1	5597	138256.819563531819	15
1	5659	140170.162015190645	15
1	5720	141863.188724637257	15
1	5798	143565.029913170166	10
1	5868	144859.699870740791	15
1	5925	146491.159491921753	13
1	6013	148127.730339837955	15
1	6064	149659.492368519169	5
1	6122	151317.299366692358	9
1	6162	152583.637621094864	5
1	6240	154206.972981242466	12
1	6303	156103.531368970767	11
1	6366	157666.21853347496	11
1	6433	159216.618074226933	15
1	6486	161045.143400643361	10
1	6553	162700.418354921313	13
1	6619	164677.549734688215	11
1	6688	166268.245093303027	11
1	6762	168008.826860358229	15
1	6817	169141.181303190281	15
1	6879	170791.429765046311	15
1	6947	172486.289083077539	13
1	7014	174116.00512331804	12
1	7078	175670.560897488452	10
1	7141	177550.122793469382	11
1	7188	178924.032918950865	5
1	7253	180749.804275159399	15
1	7335	182450.316917500912	13
1	7402	183734.322411939782	15
1	7480	185374.804974854701	15
1	7562	186913.381659959241	15
1	7613	187985.942008012862	15
1	7683	189709.270003089313	15
1	7736	191297.391792576841	8
1	7805	192982.178867795617	13
1	7867	195193.410108824993	15
1	7936	196980.027549267397	15
1	7997	198333.965907850021	14
1	8064	199715.844252615912	9
1	8129	201302.995235093093	9
1	8196	203047.531840779354	13
1	8260	204488.545536446779	15
1	8322	206190.674872687192	11
1	8398	207679.154790325631	15
1	8467	209553.153379280986	10
1	8517	210791.536796724053	10
1	8581	212675.846072319065	12
1	8641	214143.04703832935	7
1	8721	215674.945790335263	15
1	8783	217204.745047466694	15
1	8842	218571.454760393546	15
1	8913	220295.649902311745	15
1	8986	221817.15030759468	15
1	9045	223170.395180701414	15
1	9114	224759.411682528333	15
1	9181	226548.172332589504	15
1	9251	227839.950751615119	15
1	9313	229266.302940017313	15
1	9370	230949.720503900533	8
1	9430	232417.76482497079	8
1	9486	234140.110931340015	11
1	9547	235522.241067434763	15
1	9603	237202.238680465095	10
1	9664	238896.05216653113	15
1	9718	240589.107186530226	11
1	9782	242415.462585258175	15
1	9853	244433.247548490358	15
1	9916	245956.072140302874	12
1	9996	247839.588104743878	14
1	10052	249397.464647334596	7
1	10121	250778.582169011834	15
1	10162	252098.022306024311	4
1	10225	253885.601717942187	14
1	10295	255235.217148998988	15
1	10361	256835.168639300393	15
1	10434	258223.525912430694	15
1	10495	260001.4312551138	15
1	10560	261852.481557408672	13
1	10616	262869.37679368005	7
1	10696	264548.979008050829	15
1	10748	265875.140105425391	11
1	10814	267361.041461128233	15
1	10892	269294.682115685559	12
1	10942	270775.973403807301	7
1	11008	272740.483959603504	15
1	11072	274161.756774315599	10
1	11127	275544.492069776136	13
1	11195	276718.036744830283	15
1	11260	278585.128886484401	14
1	11330	280642.89127520937	14
1	11396	282138.203229360789	15
1	11463	283660.889324901443	15
1	11535	285546.696661050048	14
1	11603	286962.332392354922	15
1	11660	288701.316242628145	15
1	11719	290178.003015423054	10
1	11783	291803.670651809293	12
1	11842	293284.391540923126	9
1	11913	294933.73485254359	15
1	11977	296352.891030484889	15
1	12050	298014.80510783836	15
1	12110	300116.997554786979	13
1	12184	301942.310055774682	15
1	12240	303803.815316771542	6
1	12293	305378.416705505235	9
1	12381	306925.705508200414	15
1	12439	308439.048199858104	13
1	12494	310113.616210656099	15
1	12555	311897.738198427324	14
1	12623	313434.605617364504	9
1	12706	315409.389260095016	14
1	12773	317012.533766159774	15
1	12833	318347.108849874963	15
1	12894	319802.760370586451	15
1	12978	321469.844485059146	15
1	13050	323198.355369377401	15
1	13104	324330.405064143321	15
1	13171	326166.048618936798	15
1	13251	328019.467183735773	15
1	13321	329949.192521901486	15
1	13390	331350.163045306614	15
1	13448	332711.920773482277	15
1	13512	334264.702004881406	15
1	13564	335498.564782905335	15
1	13660	337161.207206882979	15
1	13733	338806.511989086379	15
1	13811	340166.551745856778	15
1	13876	341764.653755172389	15
1	13943	343466.437847145697	15
1	14009	345395.062567318187	12
1	14076	347161.566161082276	12
1	14133	348660.05536351401	11
1	14200	350234.962838019936	11
1	14269	351859.369516538894	11
1	14327	353503.74223696241	15
1	14404	355171.535672893248	13
1	14455	356664.705592492715	10
1	14534	358755.59979172294	15
1	14595	360344.339289772045	15
1	14686	362133.455758582513	13
1	14743	363421.482554504202	13
1	14812	364679.989253847049	15
1	14872	366497.222521378777	11
1	14947	368561.765140500581	15
1	15023	370720.381975188577	13
1	15063	371916.302991171248	9
1	15152	373400.340949340839	15
1	15234	374843.779805050786	15
1	15280	375964.818617963109	15
1	15338	377542.963072659283	12
1	15413	379163.967075990465	15
1	15463	380882.113026977041	11
1	15545	382540.55249903324	14
1	15611	383940.087694429316	14
1	15667	385362.696303347094	10
1	15724	386874.691161395411	6
1	15792	388518.503784597625	13
1	15855	389784.198833571544	11
1	15930	391492.222485509088	13
1	16006	392809.565600955244	14
1	16068	394233.756261295515	12
1	16123	395744.178208629402	14
1	16178	397440.371819373842	11
1	16236	398720.99552258246	8
1	16298	400184.090434973909	15
1	16374	402209.440900906801	13
1	16440	403806.529045457582	13
1	16497	405382.380169153937	9
1	16569	406534.030904422165	15
1	16640	408138.214672238837	15
1	16702	409401.781206664455	15
1	16781	410974.342501595796	15
1	16844	412579.630549938269	14
1	16933	414060.063335537867	15
1	16993	415471.465280664755	12
1	17048	416988.896306209283	12
1	17119	418589.554701313402	15
1	17188	420019.647105153558	10
1	17249	421700.093978413123	13
1	17321	423400.748618259728	15
1	17393	424728.548970631899	15
1	17445	426505.936030024574	9
1	17509	428238.430410530908	10
1	17569	429618.138836731582	15
1	17641	430928.062110418242	15
1	17703	432603.418525483012	12
1	17774	434360.978301846486	14
1	17838	435639.25874346937	15
1	17897	436948.865791430521	15
1	17969	439084.639314933502	13
1	18049	440747.264770672331	14
1	18107	442315.38397925318	12
1	18151	443318.579779072166	6
1	18210	444741.436202771106	15
1	18280	446579.762897240087	14
1	18345	448214.936398606936	7
1	18420	449700.862518145036	14
1	18483	451117.184674844347	14
1	18549	452599.439434273714	15
1	18605	454406.96071041341	6
1	18654	455696.860611714087	10
1	18718	456990.940961238584	15
1	18793	458611.268445323998	15
1	18870	460136.216847923998	15
1	18922	461384.97017978881	15
1	18998	462755.779776737122	15
1	19076	464543.526960622277	14
1	19131	466279.190057083388	6
1	19199	467815.516174653479	15
1	19265	469318.255597610612	15
1	19331	470848.207063379784	15
1	19391	472524.758655456198	8
1	19463	474114.95434702872	15
1	19534	475708.915190117728	15
1	19595	477012.825514777925	15
1	19672	478870.604272810295	15
1	19751	480507.497282515595	15
1	19809	481707.406925873624	15
1	19849	483049.021401131463	15
1	19923	484635.038097048568	15
1	19985	486253.51044406905	15
1	20042	487537.479370548962	15
1	20096	488632.590095963318	15
1	20168	490391.902599767906	15
1	20215	491452.028134834574	15
1	20270	492843.664826908931	15
1	20335	494221.516845333381	15
1	20411	495616.675552153687	12
1	20486	496884.800465026727	15
1	20554	498176.479356815561	15
1	20621	499759.439071229055	15
1	20694	501066.372038538184	15
1	20756	502557.259735593294	15
1	20830	503975.701499987212	15
1	20897	505834.361915084508	15
1	20953	507194.19426281949	15
1	21005	508811.700087604751	15
1	21075	510605.021387667228	10
1	21132	512473.384869064613	14
1	21194	514024.863173336567	15
1	21263	515623.138067150214	12
1	21342	517250.904969586354	14
1	21401	519308.163121778771	11
1	21475	520700.378869883104	15
1	21535	521939.160791711964	15
1	21596	523468.112397894517	12
1	21671	524995.27812747353	15
1	21732	526337.672563514134	15
1	21797	528174.932029412435	15
1	21853	530227.601303690089	6
1	21915	531545.37828709386	11
1	21986	532857.942430352312	15
1	22053	534954.589115914083	14
1	22111	536639.951215837578	7
1	22183	538240.57260148525	15
1	22253	539950.045100810943	15
1	22317	541690.638219094035	13
1	22396	543464.663613052344	14
1	22441	544706.829822632163	10
1	22503	546463.858169113193	11
1	22579	547885.499101153476	15
1	22627	549324.704956453739	14
1	22692	551250.068302219829	15
1	22756	552714.722084117059	15
1	22822	554711.667621850569	14
1	22874	556220.888743882685	9
1	22940	557978.721045092584	13
1	23005	559492.560199323679	9
1	23064	561078.221401497015	10
1	23123	562414.160361555607	9
1	23191	563949.645790871868	14
1	23259	565462.279069003555	15
1	23317	567401.449434589239	14
1	23373	568890.43144211403	10
1	23449	570491.317763865032	15
1	23518	572224.640826810464	9
1	23587	573971.722501720723	15
1	23653	575246.016003643417	10
1	23722	576634.390957634507	15
1	23787	578357.584133696174	15
1	23856	580210.702590985798	12
1	23923	582004.096616204922	15
1	23989	583418.341497667403	15
1	24052	585004.966263114015	15
1	24109	586522.909256819362	15
1	24165	588138.648466580872	15
1	24231	589804.907777493664	15
1	24288	591534.891706969144	11
1	24338	593505.759961930705	9
1	24408	594886.211242950289	15
1	24475	596427.579973206549	15
1	24556	598190.566261499551	14
1	24622	599589.651556269815	15
2	16	300	0
2	77	1759.587245768581	0
2	140	3403.500639857454	0
2	216	5122.005836456228	0
2	275	6549.628049294551	0
2	340	8146.679122999657	0
2	399	9650.955364279953	1
2	472	11127.480540699712	0
2	525	12847.0222743292	0
2	605	14337.744888993327	0
2	656	15700.239395830404	0
2	721	17515.769467296371	0
2	782	19113.880588580022	0
2	831	20541.278755545464	0
2	898	22083.706213692964	0
2	970	23815.516808914665	0
2	1023	25250.093186768017	0
2	1105	27006.919738308594	0
2	1169	28648.536784615586	0
2	1203	29837.622131416486	0
2	1261	31709.919582235167	0
2	1332	33266.974191342353	0
2	1406	34822.850760432159	0
2	1475	36104.896288255683	0
2	1534	37417.155589843609	0
2	1600	38790.036722295378	0
2	1670	40490.172890074441	0
2	1739	42265.00879803062	0
2	1802	43557.703435933109	1
2	1876	45385.050245600306	9
2	1931	46765.695753878335	5
2	1996	48816.469051623545	0
2	2057	50091.252382796032	0
2	2106	51541.263121200007	0
2	2168	53092.949105538555	0
2	2237	54948.546794639286	3
2	2306	56424.079819199433	5
2	2372	58205.440872051761	3
2	2428	59778.622580436852	0
2	2475	61167.573406156585	0
2	2536	62545.809883387793	0
2	2609	64048.524737758774	4
2	2662	65555.547946530742	0
2	2714	67043.139074631367	0
2	2797	69250.688313218193	0
2	2858	71155.643810073278	0
2	2941	72849.462911258594	0
2	3005	74397.156928896803	0
2	3052	75925.333738215479	0
2	3144	77228.071322046386	5
2	3194	78482.477264375699	1
2	3248	79846.236368535771	0
2	3303	81354.949231588581	0
2	3357	82832.383991792777	0
2	3423	84162.012384734693	0
2	3482	85687.984181901785	2
2	3545	87078.560288789827	0
2	3619	88401.998749911964	3
2	3682	90011.346804923298	0
2	3761	91801.147828837347	0
2	3833	93526.146873333804	1
2	3901	95208.765320475721	0
2	3966	96828.745446514982	0
2	4019	98313.232865230881	0
2	4090	99990.655017423804	0
2	4173	101924.124778459691	0
2	4222	103381.539999709284	0
2	4302	105470.296164256833	0
2	4386	107351.413337093362	0
2	4437	108915.750992894483	0
2	4484	110212.882235263518	0
2	4550	111370.596649967343	1
2	4620	112886.131115040538	0
2	4685	114543.793380258475	0
2	4740	116169.618430956612	0
2	4794	117919.947054336231	0
2	4869	119639.497222084707	0
2	4938	121250.439394597302	1
2	5006	122820.287921713711	0
2	5081	124531.307055068499	3
2	5142	126529.752766635725	0
2	5222	128285.070589608987	0
2	5278	130247.971552067391	0
2	5362	131932.69325759626	0
2	5407	133378.542922009817	0
2	5452	134646.064620967359	0
2	5484	135980.31256050921	0
2	5566	137605.949330322376	0
2	5627	139417.890453258341	0
2	5695	141284.56424392976	0
2	5767	142885.49992113871	0
2	5835	144207.326086478863	3
2	5899	145759.424015421483	0
2	5972	147459.000378060781	0
2	6036	148734.783375294003	0
2	6091	150315.232791181717	0
2	6147	151931.108393846203	0
2	6197	153297.456027266099	0
2	6264	154846.404480776532	0
2	6327	156739.843597275539	0
2	6401	158390.419201072021	3
2	6458	160113.877926091114	0
2	6515	161900.969338355339	0
2	6578	163432.135816758252	0
2	6639	165335.272078273501	0
2	6719	167140.372962076227	3
2	6787	168534.011545494302	0
2	6836	169768.87152053914	0
2	6921	171689.228963620587	0
2	6984	173199.329582191226	0
2	7036	174759.770528698668	0
2	7097	176476.042391666884	1
2	7159	178190.930205041677	0
2	7220	180018.399300428432	0
2	7291	181489.33386680754	0
2	7366	182980.015194774297	4
2	7425	184400.92613799328	1
2	7503	185895.773284164073	1
2	7583	187448.234537492051	4
2	7656	188905.378863882038	0
2	7714	190535.349967393095	0
2	7770	192194.741537408831	0
2	7826	194106.984303871244	0
2	7898	195987.645192558145	0
2	7971	197587.527863174654	0
2	8042	199005.782619075928	0
2	8099	200375.826914185526	0
2	8162	201991.30427064206	0
2	8229	203860.116532954509	0
2	8289	205178.33869725483	0
2	8356	206770.9266268287	0
2	8429	208405.510114187562	3
2	8484	209984.908015447343	1
2	8542	211796.080307552189	0
2	8610	213346.872197732791	0
2	8694	214971.973676554572	8
2	8754	216364.709997982399	4
2	8815	218069.526665894375	0
2	8886	219807.658220804903	0
2	8971	221354.004654839974	0
2	9026	222686.197204764003	0
2	9075	224043.413397261836	0
2	9152	225671.225158923893	0
2	9228	227491.32541807743	0
2	9280	228699.857223572414	0
2	9346	230108.304323789654	0
2	9393	231706.879329087209	0
2	9450	233180.981557231645	0
2	9514	234837.353786918238	0
2	9581	236396.90233685839	0
2	9636	238121.396567233886	0
2	9697	239720.441639500298	0
2	9749	241599.240998260979	0
2	9811	243202.096793535474	2
2	9888	245188.564060937666	1
2	9944	246712.965966859223	0
2	10025	248645.672811136429	7
2	10089	250289.562235492093	4
2	10142	251376.416302326339	2
2	10183	252979.442888812813	0
2	10256	254456.668738135124	0
2	10328	256013.149085833236	0
2	10423	257732.401088275713	0
2	10472	259175.084546286207	0
2	10517	260695.443925757074	0
2	10585	262251.983818416989	1
2	10647	263702.90131348038	2
2	10715	265040.80067479757	2
2	10791	266786.389034978151	0
2	10847	268441.917719528605	0
2	10911	270102.243570375778	0
2	10978	271708.942488886303	0
2	11045	273443.448067674398	2
2	11100	274890.219996743024	0
2	11174	276185.273181751622	0
2	11230	277823.906183462935	0
2	11285	279451.649226393256	0
2	11354	281101.382286245789	0
2	11434	283236.85220908993	0
2	11500	284443.289207820544	0
2	11568	286256.8723863159	0
2	11634	287932.428754807918	0
2	11699	289449.383425179595	1
2	11760	291067.298880692485	0
2	11821	292482.688553981163	0
2	11888	294348.830364143223	0
2	11963	295893.264259300582	0
2	12026	297333.852710531546	0
2	12078	299098.867601616012	0
2	12145	300996.663139486419	0
2	12212	302803.068781517847	0
2	12267	304442.853951459128	0
2	12337	306217.787324248952	0
2	12406	307446.572513192541	3
2	12477	309598.363856633053	0
2	12533	311047.866728741	0
2	12598	312587.568309883416	2
2	12654	314058.158546272798	0
2	12737	316138.356064593622	4
2	12808	317823.500590320217	3
2	12861	318951.309235209447	0
2	12949	320693.10168931547	3
2	13013	322321.264053635295	2
2	13075	323746.015041400914	1
2	13144	325563.466060123299	0
2	13218	327357.30273319849	0
2	13292	329122.174902867283	0
2	13357	330769.745987287083	0
2	13425	332219.37631127815	0
2	13479	333452.035178899994	0
2	13546	335017.276309538648	0
2	13610	336546.029522122127	0
2	13703	338053.678793324324	6
2	13762	339400.318319370159	1
2	13834	340833.692821381899	4
2	13913	342718.25728220158	3
2	13971	344474.8622970369	0
2	14044	346275.852250009964	0
2	14107	347719.483234687692	0
2	14165	349359.146744111356	0
2	14224	351067.381650923493	0
2	14290	352453.692883921709	0
2	14363	354320.429863224689	0
2	14441	355934.158942707443	1
2	14507	357988.356702860512	0
2	14576	359784.682132383495	0
2	14635	361093.627691774802	0
2	14705	362583.847429847439	4
2	14772	364058.493068970487	1