version 2
run General-0-20141120-21:16:34-5528
attr configname General
attr datetime 20141120-21:16:34
attr experiment General
attr inifile omnetpp.ini
attr iterationvars $0=20
attr iterationvars2 "$0=20, $repetition=0"
attr measurement $0=20
attr network ferry
attr processid 5528
attr repetition 0
attr replication #0
attr resultdir results
attr runnumber 0
attr seedset 0

vector 0  ferry.ferryboat  A->B  ETV
vector 2  ferry.ferryboat  "Left A->B"  ETV
vector 1  ferry.ferryboat  B->A  ETV
vector 3  ferry.ferryboat  "Left B->A"  ETV
0	16	300	3
0	77	1759.587245768581	13
0	140	3403.500639857454	12
0	230	5321.438279020717	17
0	313	7578.907847148958	20
0	383	9079.240798229643	20
0	470	11094.17284468582	18
0	523	12951.388901880386	13
0	605	14405.621652605383	20
0	653	15826.842271586739	10
0	729	17854.475951651875	20
0	803	19583.374424607269	14
0	870	21318.75680439523	9
0	924	22845.315316092805	7
0	994	24793.2386039645	13
0	1071	26289.150907821607	12
0	1152	28123.061276214097	20
0	1197	29751.565907233511	5
0	1258	31657.774763797515	11
0	1335	33471.941225565968	18
0	1434	35311.153049161667	20
0	1516	37176.733212323265	20
0	1585	38569.80424088065	17
0	1654	40247.685585619741	14
0	1715	41957.454374200522	14
0	1803	43490.610656220271	20
0	1878	45524.402627197947	19
0	1955	47557.745892494001	13
0	2037	49438.434643063743	15
0	2095	50939.761535356515	11
0	2173	52700.605455635284	10
0	2265	54897.69264078975	16
0	2326	56091.374448660399	11
0	2381	57643.137837958925	7
0	2441	59393.051606585071	10
0	2522	61147.453971551316	17
0	2582	62766.977825614138	10
0	2651	64380.17197108145	14
0	2696	66164.348017915077	10
0	2768	68157.498593540131	19
0	2841	69737.760318939422	16
0	2927	71559.484030550761	19
0	2992	73144.330787801902	10
0	3063	74315.473692631085	20
0	3136	76189.338742383543	20
0	3218	77844.397255413961	13
0	3294	79622.845102101843	16
0	3371	81701.037818103729	16
0	3440	83543.856860266807	12
0	3523	85147.887162507756	10
0	3594	86541.418433267859	14
0	3662	87968.469165587919	10
0	3721	89621.611848219716	11
0	3795	91437.732055581881	14
0	3862	93282.589906899546	9
0	3920	94719.475590247636	12
0	3977	96342.350445586694	13
0	4052	98003.945919526237	18
0	4114	99662.760648836764	11
0	4196	101754.390079972711	20
0	4256	103703.144562137355	15
0	4334	105404.701505407696	18
0	4413	107366.658567884072	14
0	4475	109091.850135297513	7
0	4549	110318.289467885046	20
0	4634	111967.562909537167	19
0	4695	113816.726612972816	9
0	4763	115623.354433986847	12
0	4843	117385.079019501645	16
0	4910	119362.845174945025	13
0	5004	120953.275200715318	20
0	5082	122814.747480583099	16
0	5131	124395.257950425402	10
0	5212	126522.921214420555	15
0	5284	128230.563135765874	18
0	5394	130696.285905444367	19
0	5445	132168.593892379792	9
0	5492	133882.255129416356	10
0	5579	135770.702564819671	18
0	5634	137234.394035926525	7
0	5687	138908.010590685068	10
0	5748	140762.606240857747	15
0	5837	142540.581013034484	15
0	5923	144387.728909725743	19
0	5975	146005.920423438129	11
0	6065	148053.608028692206	20
0	6132	149877.583107222706	13
0	6205	151816.255012210058	20
0	6291	154016.801225225113	20
0	6361	155966.084951409748	18
0	6450	157806.272158691101	19
0	6508	159589.398276647513	6
0	6564	161376.489688911738	12
0	6629	162907.656167314651	12
0	6701	164988.539269985049	11
0	6788	166887.657459365593	18
0	6861	168128.348705878752	20
0	6921	169875.816951974592	7
0	6989	171684.994416743205	15
0	7077	173733.50911773283	18
0	7155	175686.636135203952	13
0	7207	177276.209763086551	13
0	7272	179008.68811619538	10
0	7340	180349.632352409086	9
0	7413	182040.716438636446	20
0	7500	184063.044869271308	14
0	7590	185709.02720098192	17
0	7680	187329.741521093518	20
0	7762	189296.121532167039	16
0	7832	191487.403753278764	14
0	7897	193328.589137441448	15
0	7956	195285.470258229761	9
0	8020	196894.258122026486	12
0	8099	198776.790045654012	20
0	8168	200415.222772713403	19
0	8242	201972.024821285358	18
0	8309	203840.837083597807	16
0	8392	205609.273084344365	9
0	8455	206928.527072763375	13
0	8526	208449.818203904858	12
0	8580	210202.086286971738	12
0	8671	212526.542966555293	20
0	8777	214422.17164677807	20
0	8851	216222.038300381561	14
0	8919	217828.563935023153	12
0	8984	219864.294497583175	10
0	9070	221486.383975602118	19
0	9152	223295.522221370892	16
0	9224	224852.876703621088	20
0	9296	226676.472342888337	13
0	9362	228431.550866241621	14
0	9444	230482.553346809744	20
0	9522	232492.830518328061	19
0	9582	234215.176624697286	12
0	9643	235677.543099421875	8
0	9707	237633.613745383584	11
0	9785	239818.82610900534	14
0	9839	241656.616559875259	10
0	9904	243234.954985714173	9
0	9987	245199.130393025637	19
0	10048	246880.81863919321	9
0	10132	248949.254100935711	17
0	10214	250996.636556981363	14
0	10279	252798.290028838617	17
0	10356	254726.569374298836	19
0	10443	256506.224898340577	14
0	10527	258179.12423276721	18
0	10599	260164.642395327955	13
0	10645	261777.617991929623	7
0	10712	263325.750865781564	13
0	10801	265172.633245456064	15
0	10858	266565.796777304071	10
0	10930	268038.132713406052	11
0	10998	269972.021164469697	9
0	11067	271851.719109392829	11
0	11142	273913.347341801872	13
0	11209	275430.835602139319	14
0	11275	277162.504412739888	9
0	11353	278718.307013957914	18
0	11429	280855.350351114129	17
0	11486	282369.735881357888	10
0	11548	283816.405239565122	13
0	11619	285612.880462232951	18
0	11690	287666.940523413146	12
0	11772	289454.85399522684	18
0	11853	291495.432465454733	16
0	11922	293422.025834240484	13
0	11980	295200.034808877789	13
0	12061	297032.310931302277	12
0	12144	298905.322226192904	16
0	12219	300781.913998396587	12
0	12273	302498.103694767337	8
0	12342	304277.701117743718	14
0	12407	306069.530085825518	17
0	12476	308020.027102241285	14
0	12557	309663.889841484177	18
0	12624	311514.430637018841	14
0	12700	313222.394029538028	13
0	12774	315131.185918683299	17
0	12837	316904.776754992799	12
0	12917	318533.943037202965	20
0	13000	320144.437704596821	19
0	13082	322254.381817251947	17
0	13158	323706.169905163902	15
0	13222	325412.922888164212	13
0	13300	327294.509608643751	18
0	13375	329293.222843935263	15
0	13459	331164.682942089506	19
0	13529	332952.94694095439	9
0	13619	334744.959146440933	20
0	13705	336832.408413873192	16
0	13765	338508.98902589637	13
0	13841	340044.805579849192	20
0	13917	341789.543875911923	19
0	14004	343520.046382852336	20
0	14076	345061.296482281546	20
0	14143	346964.377127954764	17
0	14210	348821.371998425917	16
0	14306	350866.032274342212	19
0	14378	352851.032605252208	14
0	14457	354701.355642575092	18
0	14509	356289.08399152982	14
0	14570	357977.906616714788	15
0	14650	359891.635696197542	17
0	14717	362037.44887748173	12
0	14790	363931.516380217382	14
0	14864	365571.079892634868	15
0	14947	367457.306421074319	10
0	15029	368990.312729607098	20
0	15100	370976.330371858903	14
0	15163	372655.170963836517	15
0	15244	374758.979316124752	19
0	15321	376922.022173403714	19
0	15408	378528.547127268048	20
0	15497	380088.833288394235	18
0	15570	381967.456136162897	13
0	15637	383479.08836521703	16
0	15702	385476.030442634374	11
0	15791	387093.512517168639	20
0	15864	388891.859873963859	11
0	15941	390873.034959606497	17
0	16021	392695.778959779178	16
0	16106	394624.679354434605	17
0	16161	396065.853170105059	12
0	16254	397495.96671404429	20
0	16329	399281.638550825977	20
0	16387	401168.832841358276	9
0	16439	402865.026452102716	8
0	16528	404781.162149946542	14
0	16595	406645.099234776682	11
0	16672	408389.085409191877	16
0	16740	410271.733110699057	13
0	16837	412118.614154390562	17
0	16926	413895.690057693835	15
0	16996	415398.885354043442	13
0	17085	417187.18048161192	18
0	17175	419017.005251328864	18
0	17252	420479.079793589366	15
0	17317	422227.143037470023	11
0	17401	424136.82714375552	20
0	17475	425868.713859552371	12
0	17538	427589.647907157986	13
0	17636	429368.914545608515	20
0	17701	431288.467105893886	18
0	17790	433011.632652042899	16
0	17866	434945.276397293517	12
0	17936	436442.189027098923	14
0	18019	438412.938482107917	12
0	18084	439950.719317127551	14
0	18166	441805.426866052276	14
0	18236	443860.587084544871	12
0	18323	445521.678985875193	20
0	18391	447146.202023325419	10
0	18483	449277.535286047641	16
0	18539	450626.74263887955	12
0	18606	452487.176091990508	12
0	18687	454152.25935938731	16
0	18754	455871.536423763227	11
0	18820	457416.442345799022	13
0	18874	459083.442635252296	3
0	18943	460770.327186989739	15
0	19021	462301.280027680466	20
0	19106	464062.109098027568	20
0	19187	465926.937801526985	20
0	19268	467346.796801902883	20
0	19348	469173.92661205212	17
0	19412	470848.425961910421	15
0	19486	472732.813015984051	14
0	19554	474235.769586427673	10
0	19639	476092.374316486159	18
0	19701	478184.762949868339	13
0	19786	479822.281415814853	18
0	19876	481542.704018222035	16
0	19950	483106.515055499542	16
0	20013	484805.416533104783	9
0	20111	486634.061482569332	20
0	20175	488679.451530080968	10
0	20269	490772.944221848445	20
0	20339	492356.913148328357	15
0	20408	493985.199743152184	8
0	20490	495867.520157686974	15
0	20557	497685.867961572446	11
0	20626	499273.573178595602	18
0	20714	500970.36158709173	20
0	20807	502664.371736646292	20
0	20889	504674.499690061187	14
0	20954	506151.568026868025	14
0	21040	507716.14598260462	12
0	21121	509216.215434438908	20
0	21173	510937.297528286901	8
0	21241	512667.503803255081	20
0	21318	514843.760059795843	20
0	21395	517153.08097380158	18
0	21466	519133.131728613056	15
0	21541	520943.24566201356	14
0	21621	522652.865437841444	20
0	21685	524633.287192885045	13
0	21767	526759.333316876107	11
0	21847	528470.837274500798	17
0	21913	530103.392931219426	15
0	21994	531877.529801018047	20
0	22061	533596.710546452996	14
0	22113	534913.019760884397	7
0	22181	537184.277434207752	13
0	22254	538993.071161699169	11
0	22326	540666.714337498432	15
0	22403	542821.197995782981	14
0	22448	544499.616990668478	11
0	22542	546429.700913811594	18
0	22615	548447.934410809628	16
0	22708	550430.765064262428	18
0	22767	551996.722050307418	11
0	22852	554202.271645249808	16
0	22919	555530.414620090121	9
0	22984	557601.791226366237	13
0	23057	559277.290582976189	14
0	23139	561051.295739196467	16
0	23188	562739.002294895547	12
0	23260	564926.014682567233	18
0	23329	566534.109634037808	20
0	23406	568422.250270446263	16
0	23474	570231.620543339691	13
0	23554	572020.639241773725	20
0	23641	573977.305932370549	20
0	23697	575818.337091952889	11
0	23763	577399.690027174135	15
0	23835	579229.750281573943	16
0	23921	581478.332913780683	18
0	24004	583163.870985278885	19
0	24082	584949.105722450354	15
0	24152	586839.953731395762	16
0	24223	588534.247255767601	13
0	24275	590168.808105138426	12
0	24352	591945.820282557521	15
0	24438	593960.894040284752	16
0	24508	596079.100656737044	14
0	24573	597937.762329724558	12
0	24628	599563.273362001695	9
1	47	1046.902850533108	8
1	106	2727.358626348342	11
1	186	4344.947814467866	15
1	281	6585.967146662224	19
1	364	8691.505881853583	9
1	435	10183.594608672942	15
1	492	11843.421704164929	8
1	568	13814.244890764964	13
1	630	15192.769624831759	11
1	683	16811.421520279626	5
1	775	18914.153578528211	19
1	829	20376.286083688378	10
1	899	22032.860122139386	20
1	965	23836.895968751777	16
1	1032	25488.018649524683	20
1	1114	27263.944853570597	19
1	1175	28980.879379985723	10
1	1235	30738.406720377049	12
1	1293	32411.74937150457	9
1	1376	34402.03332861486	19
1	1477	36182.863470124817	20
1	1556	37897.637681569552	14
1	1620	39198.19915182726	13
1	1682	41236.29117675244	8
1	1764	42922.428636418294	16
1	1839	44523.688670424592	16
1	1917	46489.594236216154	13
1	1996	48500.997843395632	20
1	2058	50089.959081510095	13
1	2136	51800.197646568821	20
1	2213	53776.092656026967	16
1	2294	55236.195321496566	20
1	2345	56831.250259219337	12
1	2412	58572.541166555014	20
1	2477	60120.984633276624	8
1	2567	62105.637093942105	20
1	2620	63609.522079890088	11
1	2676	65385.004179012084	12
1	2744	67036.123372845187	12
1	2802	68828.389608036503	9
1	2891	70790.677940443903	15
1	2963	72201.626073232375	16
1	3016	73831.827600704057	10
1	3113	75273.639423926944	15
1	3184	76933.122931669639	12
1	3241	78521.609330557847	15
1	3335	80873.770287080816	18
1	3417	82631.305721092873	18
1	3484	84465.687308830894	16
1	3558	85624.728832820693	20
1	3636	87291.437981063834	20
1	3689	88733.26696687112	9
1	3758	90470.806828200065	16
1	3837	92617.614569143963	15
1	3886	93980.467627183812	14
1	3952	95601.985136039266	10
1	4010	97042.780169628945	10
1	4088	98986.396676830883	14
1	4156	100818.02428988763	13
1	4225	102764.589963406009	11
1	4294	104468.592575112601	11
1	4387	106522.261962096456	19
1	4436	108046.443354294979	11
1	4520	109813.203469207972	20
1	4609	111339.205302178485	18
1	4677	112912.752284999468	13
1	4725	114675.025943105691	11
1	4797	116669.610521630084	15
1	4871	118391.825724243495	9
1	4945	120016.917950364312	19
1	5042	122147.512695241425	16
1	5107	123611.66468349791	12
1	5161	125393.85183354745	10
1	5243	127279.385983467414	20
1	5330	129570.05534295674	17
1	5423	131430.79074003652	20
1	5480	133225.804253454547	9
1	5517	134618.614701652968	7
1	5606	136461.791475140316	20
1	5656	138139.227556547333	10
1	5728	140022.412819424183	12
1	5794	141743.998597853586	14
1	5878	143375.941429344659	14
1	5940	145063.382867656647	11
1	6028	147065.955127308546	20
1	6094	148858.094337112666	10
1	6174	150805.945109612709	12
1	6258	153299.003253064163	12
1	6331	154935.545780314266	13
1	6395	156799.157616078054	12
1	6483	158692.138424783332	20
1	6535	160520.66375119976	13
1	6602	162175.938705477712	13
1	6671	164153.070085244614	15
1	6745	165715.529590592393	16
1	6827	167721.517139138659	12
1	6884	168820.484115323237	10
1	6962	170705.960487786598	19
1	7034	172773.830034676361	14
1	7099	174377.274523113458	12
1	7183	176433.376068826334	20
1	7240	178184.377904224448	10
1	7290	179660.699327483985	11
1	7378	181294.379947394372	18
1	7464	183095.523625192629	16
1	7553	184888.058891672548	20
1	7641	186480.343725851947	20
1	7734	188477.387654530095	19
1	7800	190265.683145314202	12
1	7872	192383.160446663553	14
1	7929	194451.846156732423	9
1	7990	196079.705341962913	14
1	8070	197942.580582499543	13
1	8143	199755.240111143789	12
1	8203	201270.683802132348	8
1	8276	203028.252391422652	13
1	8349	204683.310991116826	17
1	8424	206155.067806648844	20
1	8496	207755.605208312696	14
1	8546	209224.321365814989	7
1	8625	211380.52679347827	18
1	8717	213585.571332967201	19
1	8808	215232.274092734425	17
1	8880	216951.230148360581	20
1	8943	218873.901418463844	11
1	9017	220533.726130640722	20
1	9115	222407.509244340199	20
1	9184	224124.145227282066	10
1	9253	225549.853285039507	11
1	9333	227489.014515844963	20
1	9415	229807.953113236027	11
1	9480	231606.080903697287	12
1	9544	233256.047250588916	12
1	9609	234918.69409730052	11
1	9678	236562.035619428551	19
1	9739	238615.353609059098	15
1	9807	240712.302162194167	12
1	9881	242622.687945122106	19
1	9938	244241.139004609459	12
1	10015	245966.638472390845	14
1	10094	248007.440777077865	18
1	10163	249804.538968823866	14
1	10250	251815.518456245751	17
1	10312	253800.030123544622	8
1	10399	255553.674647716713	17
1	10469	257170.681981217385	15
1	10563	259172.581919812262	20
1	10625	260980.26513734355	14
1	10679	262626.248604773247	11
1	10748	264109.490537070295	16
1	10831	265842.28985304246	17
1	10891	267261.724245433962	13
1	10969	269104.731334786083	20
1	11043	270926.659812435502	18
1	11109	272858.271233007888	18
1	11183	274710.386938621977	16
1	11249	276508.232339706776	11
1	11320	277885.543450879253	14
1	11396	279792.857738889292	16
1	11458	281676.310832496907	12
1	11514	283115.068889249233	8
1	11573	284596.928789592178	11
1	11655	286606.389832724884	16
1	11734	288593.097282661603	20
1	11808	290447.365282903283	17
1	11891	292400.863936795598	16
1	11963	294394.886794724713	18
1	12022	296221.348414118156	11
1	12112	298154.147627470532	19
1	12185	299895.118932850615	16
1	12239	301574.776301468549	13
1	12300	303193.746376797029	15
1	12367	305129.744205471176	9
1	12428	307005.092839871625	13
1	12528	308792.048473641793	20
1	12585	310535.294737352272	12
1	12665	312329.682991041887	13
1	12743	314336.369435088713	13
1	12801	315906.127966381473	11
1	12871	317595.2187351887	15
1	12960	319502.974904578487	12
1	13036	320984.633855688742	10
1	13117	322929.250995702602	20
1	13180	324468.439201515916	10
1	13269	326401.754239007022	17
1	13337	328499.765477302945	13
1	13403	329996.72683522133	15
1	13494	331982.260912932565	17
1	13570	333673.123418518594	20
1	13656	335696.628539651575	18
1	13740	337762.708487632617	15
1	13807	339377.151696473954	12
1	13882	340949.978325305634	9
1	13973	342937.474989660697	15
1	14041	344303.202520286908	7
1	14114	346006.685174512975	16
1	14169	347855.254037601369	8
1	14254	349919.697662697128	17
1	14342	351996.458328241912	18
1	14408	353573.138983870518	13
1	14482	355452.485813084828	10
1	14542	357119.325480043439	7
1	14605	358829.012426383347	13
1	14676	361008.714107538059	15
1	14760	363167.135640491702	17
1	14825	364899.51634261693	12
1	14903	366449.062279786819	20
1	14994	368320.826675666404	20
1	15067	369945.093322121939	15
1	15124	371647.881896851247	10
1	15202	373784.573155403567	12
1	15287	376028.907337194344	14
1	15381	377933.227041057304	18
1	15459	379298.64673177599	17
1	15532	381089.631114005066	15
1	15598	382610.084434713144	9
1	15679	384598.536041954708	17
1	15737	386193.682684034818	10
1	15831	387926.663136407935	17
1	15905	389914.247483117092	16
1	15974	391699.092275588809	15
1	16065	393526.296160080159	15
1	16140	395302.945936819451	13
1	16208	396881.560964495218	12
1	16294	398365.674744508655	14
1	16354	400141.821185470913	13
1	16411	402196.980832855427	12
1	16479	403717.896514138797	17
1	16556	405548.440949406634	17
1	16624	407432.068233724971	15
1	16705	409339.135628045655	19
1	16790	411277.329257807545	17
1	16875	412763.911355075344	20
1	16973	414764.272373872426	20
1	17037	416028.885677159588	18
1	17121	418053.236455887176	16
1	17228	419838.196432681783	20
1	17276	421194.833310685607	13
1	17350	423338.240742315069	16
1	17424	424862.29858953299	13
1	17502	426715.091007198272	20
1	17597	428643.43725621152	19
1	17677	430454.205198325444	13
1	17740	432394.793106945712	15
1	17814	433866.38051662892	16
1	17900	435445.567717009272	20
1	17969	437260.37915814297	15
1	18045	439214.642475609391	19
1	18129	440886.353022667285	16
1	18195	442698.257869374391	15
1	18275	444503.618446067009	20
1	18361	446335.130898858491	17
1	18445	448228.881023767243	16
1	18514	449942.810077263072	20
1	18567	451393.189594264975	7
1	18646	453238.127991289964	20
1	18713	454972.720314170534	14
1	18779	456616.266033074027	17
1	18845	458231.372551486436	14
1	18903	459690.264821042852	15
1	18988	461717.914998697778	16
1	19061	463260.495527703091	11
1	19129	464745.665154258361	12
1	19221	466593.923450980682	14
1	19310	468555.028443211344	16
1	19374	470102.05176596934	10
1	19446	471651.505537936459	12
1	19518	473471.445437526221	20
1	19602	475250.393545453893	18
1	19671	477179.219146921901	10
1	19758	479005.946642052832	18
1	19827	480561.807253351842	17
1	19913	482233.281251371617	16
1	19978	483993.217892117015	12
1	20057	485550.937663190558	19
1	20143	487760.187335224356	17
1	20219	489661.863671142804	19
1	20306	491649.114384025412	16
1	20381	493181.946886123087	16
1	20449	494907.271085934295	20
1	20534	496751.961353317755	20
1	20598	498425.023457576255	10
1	20673	500184.405906881975	14
1	20749	501781.301909107492	15
1	20844	503613.716779544271	19
1	20917	505371.732935548409	15
1	20996	506748.417268391043	20
1	21092	508788.450174571749	20
1	21145	510121.492330866471	12
1	21204	511760.991521285706	7
1	21269	513622.431667063738	7
1	21369	516068.566789835172	19
1	21429	517942.08818870729	9
1	21510	519994.287660818018	19
1	21590	522106.532282048997	15
1	21651	523562.956491198939	11
1	21729	525828.097368517309	17
1	21802	527466.239220777574	20
1	21870	529175.223863688962	13
1	21961	531086.356462156533	15
1	22031	532958.171592628063	11
1	22085	534294.73224637071	10
1	22136	535921.938487003433	14
1	22212	538030.357869902265	12
1	22289	539738.489281576799	20
1	22363	541756.955213748696	14
1	22427	543767.667327423089	13
1	22497	545393.155914216613	14
1	22583	547547.381513448191	19
1	22662	549508.869348988579	18
1	22742	551226.68097835813	16
1	22797	552950.433375826448	10
1	22885	554775.095877984602	20
1	22959	556681.241474577951	18
1	23026	558543.937866565879	11
1	23113	560404.907076634739	19
1	23156	561806.758070867545	10
1	23217	563912.632838729219	10
1	23308	565985.236626306839	13
1	23372	567318.279348409825	10
1	23446	569278.594630519362	15
1	23521	571159.029902059124	12
1	23603	573150.509860215668	17
1	23672	575158.738413190775	12
1	23727	576577.52445327663	9
1	23793	578231.009816615525	9
1	23875	580347.348144663223	18
1	23968	582347.431667848424	20
1	24041	584054.505824747532	16
1	24103	585659.911561912507	11
1	24177	587513.030019202131	15
1	24246	589354.769517199483	12
1	24320	591107.443866834941	15
1	24389	592749.395296343983	15
1	24464	594834.067668897434	15
1	24539	597021.474263466053	14
1	24596	598705.621780616835	13
2	16	300	0
2	77	1759.587245768581	0
2	140	3403.500639857454	0
2	230	5321.438279020717	0
2	313	7578.907847148958	0
2	383	9079.240798229643	1
2	470	11094.17284468582	0
2	523	12951.388901880386	0
2	605	14405.621652605383	0
2	653	15826.842271586739	0
2	729	17854.475951651875	0
2	803	19583.374424607269	0
2	870	21318.75680439523	0
2	924	22845.315316092805	0
2	994	24793.2386039645	0
2	1071	26289.150907821607	0
2	1152	28123.061276214097	0
2	1197	29751.565907233511	0
2	1258	31657.774763797515	0
2	1335	33471.941225565968	0
2	1434	35311.153049161667	0
2	1516	37176.733212323265	1
2	1585	38569.80424088065	0
2	1654	40247.685585619741	0
2	1715	41957.454374200522	0
2	1803	43490.610656220271	1
2	1878	45524.402627197947	0
2	1955	47557.745892494001	0
2	2037	49438.434643063743	0
2	2095	50939.761535356515	0
2	2173	52700.605455635284	0
2	2265	54897.69264078975	0
2	2326	56091.374448660399	0
2	2381	57643.137837958925	0
2	2441	59393.051606585071	0
2	2522	61147.453971551316	0
2	2582	62766.977825614138	0
2	2651	64380.17197108145	0
2	2696	66164.348017915077	0
2	2768	68157.498593540131	0
2	2841	69737.760318939422	0
2	2927	71559.484030550761	0
2	2992	73144.330787801902	0
2	3063	74315.473692631085	1
2	3136	76189.338742383543	0
2	3218	77844.397255413961	0
2	3294	79622.845102101843	0
2	3371	81701.037818103729	0
2	3440	83543.856860266807	0
2	3523	85147.887162507756	0
2	3594	86541.418433267859	0
2	3662	87968.469165587919	0
2	3721	89621.611848219716	0
2	3795	91437.732055581881	0
2	3862	93282.589906899546	0
2	3920	94719.475590247636	0
2	3977	96342.350445586694	0
2	4052	98003.945919526237	0
2	4114	99662.760648836764	0
2	4196	101754.390079972711	0
2	4256	103703.144562137355	0
2	4334	105404.701505407696	0
2	4413	107366.658567884072	0
2	4475	109091.850135297513	0
2	4549	110318.289467885046	0
2	4634	111967.562909537167	0
2	4695	113816.726612972816	0
2	4763	115623.354433986847	0
2	4843	117385.079019501645	0
2	4910	119362.845174945025	0
2	5004	120953.275200715318	0
2	5082	122814.747480583099	0
2	5131	124395.257950425402	0
2	5212	126522.921214420555	0
2	5284	128230.563135765874	0
2	5394	130696.285905444367	0
2	5445	132168.593892379792	0
2	5492	133882.255129416356	0
2	5579	135770.702564819671	0
2	5634	137234.394035926525	0
2	5687	138908.010590685068	0
2	5748	140762.606240857747	0
2	5837	142540.581013034484	0
2	5923	144387.728909725743	0
2	5975	146005.920423438129	0
2	6065	148053.608028692206	0
2	6132	149877.583107222706	0
2	6205	151816.255012210058	1
2	6291	154016.801225225113	4
2	6361	155966.084951409748	0
2	6450	157806.272158691101	0
2	6508	159589.398276647513	0
2	6564	161376.489688911738	0
2	6629	162907.656167314651	0
2	6701	164988.539269985049	0
2	6788	166887.657459365593	0
2	6861	168128.348705878752	0
2	6921	169875.816951974592	0
2	6989	171684.994416743205	0
2	7077	173733.50911773283	0
2	7155	175686.636135203952	0
2	7207	177276.209763086551	0
2	7272	179008.68811619538	0
2	7340	180349.632352409086	0
2	7413	182040.716438636446	0
2	7500	184063.044869271308	0
2	7590	185709.02720098192	0
2	7680	187329.741521093518	0
2	7762	189296.121532167039	0
2	7832	191487.403753278764	0
2	7897	193328.589137441448	0
2	7956	195285.470258229761	0
2	8020	196894.258122026486	0
2	8099	198776.790045654012	7
2	8168	200415.222772713403	0
2	8242	201972.024821285358	0
2	8309	203840.837083597807	0
2	8392	205609.273084344365	0
2	8455	206928.527072763375	0
2	8526	208449.818203904858	0
2	8580	210202.086286971738	0
2	8671	212526.542966555293	0
2	8777	214422.17164677807	0
2	8851	216222.038300381561	0
2	8919	217828.563935023153	0
2	8984	219864.294497583175	0
2	9070	221486.383975602118	0
2	9152	223295.522221370892	0
2	9224	224852.876703621088	0
2	9296	226676.472342888337	0
2	9362	228431.550866241621	0
2	9444	230482.553346809744	0
2	9522	232492.830518328061	0
2	9582	234215.176624697286	0
2	9643	235677.543099421875	0
2	9707	237633.613745383584	0
2	9785	239818.82610900534	0
2	9839	241656.616559875259	0
2	9904	243234.954985714173	0
2	9987	245199.130393025637	0
2	10048	246880.81863919321	0
2	10132	248949.254100935711	0
2	10214	250996.636556981363	0
2	10279	252798.290028838617	0
2	10356	254726.569374298836	0
2	10443	256506.224898340577	0
2	10527	258179.12423276721	0
2	10599	260164.642395327955	0
2	10645	261777.617991929623	0
2	10712	263325.750865781564	0
2	10801	265172.633245456064	0
2	10858	266565.796777304071	0
2	10930	268038.132713406052	0
2	10998	269972.021164469697	0
2	11067	271851.719109392829	0
2	11142	273913.347341801872	0
2	11209	275430.835602139319	0
2	11275	277162.504412739888	0
2	11353	278718.307013957914	0
2	11429	280855.350351114129	0
2	11486	282369.735881357888	0
2	11548	283816.405239565122	0
2	11619	285612.880462232951	0
2	11690	287666.940523413146	0
2	11772	289454.85399522684	0
2	11853	291495.432465454733	0
2	11922	293422.025834240484	0
2	11980	295200.034808877789	0
2	12061	297032.310931302277	0
2	12144	298905.322226192904	0
2	12219	300781.913998396587	0
2	12273	302498.103694767337	0
2	12342	304277.701117743718	0
2	12407	306069.530085825518	0
2	12476	308020.027102241285	0
2	12557	309663.889841484177	0
2	12624	311514.430637018841	0
2	12700	313222.394029538028	0
2	12774	315131.185918683299	0
2	12837	316904.776754992799	0
2	12917	318533.943037202965	0
2	13000	320144.437704596821	0
2	13082	322254.381817251947	0
2	13158	323706.169905163902	0
2	13222	325412.922888164212	0
2	13300	327294.509608643751	0
2	13375	329293.222843935263	0
2	13459	331164.682942089506	0
2	13529	332952.94694095439	0
2	13619	334744.959146440933	0
2	13705	336832.408413873192	0
2	13765	338508.98902589637	0
2	13841	340044.805579849192	0
2	13917	341789.543875911923	0
2	14004	343520.046382852336	6
2	14076	345061.296482281546	2
2	14143	346964.377127954764	0
2	14210	348821.371998425917	0
2	14306	350866.032274342212	0
2	14378	352851.032605252208	0
2	14457	354701.355642575092	0
2	14509	356289.08399152982	0
2	14570	357977.906616714788	0
2	14650	359891.635696197542	0
2	14717	362037.44887748173	0
2	14790	363931.516380217382	0
2	14864	365571.079892634868	0
2	14947	367457.306421074319	0
2	15029	368990.312729607098	0
2	15100	370976.330371858903	0
2	15163	372655.170963836517	0
2	15244	374758.979316124752	0
2	15321	376922.022173403714	0
2	15408	378528.547127268048	2
2	15497	380088.833288394235	0
2	15570	381967.456136162897	0
2	15637	383479.08836521703	0
2	15702	385476.030442634374	0
2	15791	387093.512517168639	0
2	15864	388891.859873963859	0
2	15941	390873.034959606497	0
2	16021	392695.778959779178	0
2	16106	394624.679354434605	0
2	16161	396065.853170105059	0
2	16254	397495.96671404429	0
2	16329	399281.638550825977	0
2	16387	401168.832841358276	0
2	16439	402865.026452102716	0
2	16528	404781.162149946542	0
2	16595	406645.099234776682	0
2	16672	408389.085409191877	0
2	16740	410271.733110699057	0
2	16837	412118.614154390562	0
2	16926	413895.690057693835	0
2	16996	415398.885354043442	0
2	17085	417187.18048161192	0
2	17175	419017.005251328864	0
2	17252	420479.079793589366	0
2	17317	422227.143037470023	0
2	17401	424136.82714375552	0
2	17475	425868.713859552371	0
2	17538	427589.647907157986	0
2	17636	429368.914545608515	7
2	17701	431288.467105893886	0
2	17790	433011.632652042899	0
2	17866	434945.276397293517	0
2	17936	436442.189027098923	0
2	18019	438412.938482107917	0
2	18084	439950.719317127551	0
2	18166	441805.426866052276	0
2	18236	443860.587084544871	0
2	18323	445521.678985875193	0
2	18391	447146.202023325419	0
2	18483	449277.535286047641	0
2	18539	450626.74263887955	0
2	18606	452487.176091990508	0
2	18687	454152.25935938731	0
2	18754	455871.536423763227	0
2	18820	457416.442345799022	0
2	18874	459083.442635252296	0
2	18943	460770.327186989739	0
2	19021	462301.280027680466	0
2	19106	464062.109098027568	0
2	19187	465926.937801526985	0
2	19268	467346.796801902883	0
2	19348	469173.92661205212	0
2	19412	470848.425961910421	0
2	19486	472732.813015984051	0
2	19554	474235.769586427673	0
2	19639	476092.374316486159	0
2	19701	478184.762949868339	0
2	19786	479822.281415814853	0
2	19876	481542.704018222035	0
2	19950	483106.515055499542	0
2	20013	484805.416533104783	0
2	20111	486634.061482569332	0
2	20175	488679.451530080968	0
2	20269	490772.944221848445	0
2	20339	492356.913148328357	0
2	20408	493985.199743152184	0
2	20490	495867.520157686974	0
2	20557	497685.867961572446	0
2	20626	499273.573178595602	0
2	20714	500970.36158709173	0
2	20807	502664.371736646292	0
2	20889	504674.499690061187	0
2	20954	506151.568026868025	0
2	21040	507716.14598260462	0
2	21121	509216.215434438908	0
2	21173	510937.297528286901	0
2	21241	512667.503803255081	0
2	21318	514843.760059795843	0
2	21395	517153.08097380158	0
2	21466	519133.131728613056	0
2	21541	520943.24566201356	0
2	21621	522652.865437841444	0
2	21685	524633.287192885045	0
2	21767	526759.333316876107	0
2	21847	528470.837274500798	0
2	21913	530103.392931219426	0
2	21994	531877.529801018047	1
2	22061	533596.710546452996	0
2	22113	534913.019760884397	0
2	22181	537184.277434207752	0
2	22254	538993.071161699169	0
2	22326	540666.714337498432	0
2	22403	542821.197995782981	0
2	22448	544499.616990668478	0
2	22542	546429.700913811594	0
2	22615	548447.934410809628	0
2	22708	550430.765064262428	0
2	22767	551996.722050307418	0